V -t * -v 1.0a5 -a 0
A -t * -n 1 -p 0 -o 0x7fffffff -c 30 -a 1
A -t * -h 1 -m 1073741823 -s 0
c -t * -i 4 -n green
c -t * -i 5 -n black
c -t * -i 1 -n darkmagenta
c -t * -i 2 -n yellow
c -t * -i 3 -n blue
n -t * -a 0 -s 0 -S UP -v circle -c black -i black
n -t * -a 1 -s 1 -S UP -v circle -c black -i black
l -t * -s 0 -d 1 -S UP -r 1000000 -D 0.0050000000000000001 -c black
+ -t 0.2 -s 0 -d 1 -p tcp -e 40 -c 4 -i 0 -a 4 -x {0.0 1.0 0 ------- null}
- -t 0.2 -s 0 -d 1 -p tcp -e 40 -c 4 -i 0 -a 4 -x {0.0 1.0 0 ------- null}
h -t 0.2 -s 0 -d 1 -p tcp -e 40 -c 4 -i 0 -a 4 -x {0.0 1.0 -1 ------- null}
r -t 0.20532 -s 0 -d 1 -p tcp -e 40 -c 4 -i 0 -a 4 -x {0.0 1.0 0 ------- null}
+ -t 0.20532 -s 1 -d 0 -p ack -e 40 -c 4 -i 1 -a 4 -x {1.0 0.0 0 ------- null}
- -t 0.20532 -s 1 -d 0 -p ack -e 40 -c 4 -i 1 -a 4 -x {1.0 0.0 0 ------- null}
h -t 0.20532 -s 1 -d 0 -p ack -e 40 -c 4 -i 1 -a 4 -x {1.0 0.0 -1 ------- null}
r -t 0.21064 -s 1 -d 0 -p ack -e 40 -c 4 -i 1 -a 4 -x {1.0 0.0 0 ------- null}
+ -t 0.21064 -s 0 -d 1 -p tcp -e 1040 -c 4 -i 2 -a 4 -x {0.0 1.0 1 ------- null}
- -t 0.21064 -s 0 -d 1 -p tcp -e 1040 -c 4 -i 2 -a 4 -x {0.0 1.0 1 ------- null}
h -t 0.21064 -s 0 -d 1 -p tcp -e 1040 -c 4 -i 2 -a 4 -x {0.0 1.0 -1 ------- null}
+ -t 0.21064 -s 0 -d 1 -p tcp -e 1040 -c 4 -i 3 -a 4 -x {0.0 1.0 2 ------- null}
- -t 0.21896 -s 0 -d 1 -p tcp -e 1040 -c 4 -i 3 -a 4 -x {0.0 1.0 2 ------- null}
h -t 0.21896 -s 0 -d 1 -p tcp -e 1040 -c 4 -i 3 -a 4 -x {0.0 1.0 -1 ------- null}
r -t 0.22396 -s 0 -d 1 -p tcp -e 1040 -c 4 -i 2 -a 4 -x {0.0 1.0 1 ------- null}
+ -t 0.22396 -s 1 -d 0 -p ack -e 40 -c 4 -i 4 -a 4 -x {1.0 0.0 1 ------- null}
- -t 0.22396 -s 1 -d 0 -p ack -e 40 -c 4 -i 4 -a 4 -x {1.0 0.0 1 ------- null}
h -t 0.22396 -s 1 -d 0 -p ack -e 40 -c 4 -i 4 -a 4 -x {1.0 0.0 -1 ------- null}
r -t 0.22928 -s 1 -d 0 -p ack -e 40 -c 4 -i 4 -a 4 -x {1.0 0.0 1 ------- null}
+ -t 0.22928 -s 0 -d 1 -p tcp -e 1040 -c 4 -i 5 -a 4 -x {0.0 1.0 3 ------- null}
- -t 0.22928 -s 0 -d 1 -p tcp -e 1040 -c 4 -i 5 -a 4 -x {0.0 1.0 3 ------- null}
h -t 0.22928 -s 0 -d 1 -p tcp -e 1040 -c 4 -i 5 -a 4 -x {0.0 1.0 -1 ------- null}
+ -t 0.22928 -s 0 -d 1 -p tcp -e 1040 -c 4 -i 6 -a 4 -x {0.0 1.0 4 ------- null}
r -t 0.23228 -s 0 -d 1 -p tcp -e 1040 -c 4 -i 3 -a 4 -x {0.0 1.0 2 ------- null}
+ -t 0.23228 -s 1 -d 0 -p ack -e 40 -c 4 -i 7 -a 4 -x {1.0 0.0 2 ------- null}
- -t 0.23228 -s 1 -d 0 -p ack -e 40 -c 4 -i 7 -a 4 -x {1.0 0.0 2 ------- null}
h -t 0.23228 -s 1 -d 0 -p ack -e 40 -c 4 -i 7 -a 4 -x {1.0 0.0 -1 ------- null}
- -t 0.2376 -s 0 -d 1 -p tcp -e 1040 -c 4 -i 6 -a 4 -x {0.0 1.0 4 ------- null}
h -t 0.2376 -s 0 -d 1 -p tcp -e 1040 -c 4 -i 6 -a 4 -x {0.0 1.0 -1 ------- null}
r -t 0.2376 -s 1 -d 0 -p ack -e 40 -c 4 -i 7 -a 4 -x {1.0 0.0 2 ------- null}
+ -t 0.2376 -s 0 -d 1 -p tcp -e 1040 -c 4 -i 8 -a 4 -x {0.0 1.0 5 ------- null}
+ -t 0.2376 -s 0 -d 1 -p tcp -e 1040 -c 4 -i 9 -a 4 -x {0.0 1.0 6 ------- null}
r -t 0.2426 -s 0 -d 1 -p tcp -e 1040 -c 4 -i 5 -a 4 -x {0.0 1.0 3 ------- null}
+ -t 0.2426 -s 1 -d 0 -p ack -e 40 -c 4 -i 10 -a 4 -x {1.0 0.0 3 ------- null}
- -t 0.2426 -s 1 -d 0 -p ack -e 40 -c 4 -i 10 -a 4 -x {1.0 0.0 3 ------- null}
h -t 0.2426 -s 1 -d 0 -p ack -e 40 -c 4 -i 10 -a 4 -x {1.0 0.0 -1 ------- null}
- -t 0.24592 -s 0 -d 1 -p tcp -e 1040 -c 4 -i 8 -a 4 -x {0.0 1.0 5 ------- null}
h -t 0.24592 -s 0 -d 1 -p tcp -e 1040 -c 4 -i 8 -a 4 -x {0.0 1.0 -1 ------- null}
r -t 0.24792 -s 1 -d 0 -p ack -e 40 -c 4 -i 10 -a 4 -x {1.0 0.0 3 ------- null}
+ -t 0.24792 -s 0 -d 1 -p tcp -e 1040 -c 4 -i 11 -a 4 -x {0.0 1.0 7 ------- null}
+ -t 0.24792 -s 0 -d 1 -p tcp -e 1040 -c 4 -i 12 -a 4 -x {0.0 1.0 8 ------- null}
r -t 0.25092 -s 0 -d 1 -p tcp -e 1040 -c 4 -i 6 -a 4 -x {0.0 1.0 4 ------- null}
+ -t 0.25092 -s 1 -d 0 -p ack -e 40 -c 4 -i 13 -a 4 -x {1.0 0.0 4 ------- null}
- -t 0.25092 -s 1 -d 0 -p ack -e 40 -c 4 -i 13 -a 4 -x {1.0 0.0 4 ------- null}
h -t 0.25092 -s 1 -d 0 -p ack -e 40 -c 4 -i 13 -a 4 -x {1.0 0.0 -1 ------- null}
- -t 0.25424 -s 0 -d 1 -p tcp -e 1040 -c 4 -i 9 -a 4 -x {0.0 1.0 6 ------- null}
h -t 0.25424 -s 0 -d 1 -p tcp -e 1040 -c 4 -i 9 -a 4 -x {0.0 1.0 -1 ------- null}
r -t 0.25624 -s 1 -d 0 -p ack -e 40 -c 4 -i 13 -a 4 -x {1.0 0.0 4 ------- null}
+ -t 0.25624 -s 0 -d 1 -p tcp -e 1040 -c 4 -i 14 -a 4 -x {0.0 1.0 9 ------- null}
+ -t 0.25624 -s 0 -d 1 -p tcp -e 1040 -c 4 -i 15 -a 4 -x {0.0 1.0 10 ------- null}
r -t 0.25924 -s 0 -d 1 -p tcp -e 1040 -c 4 -i 8 -a 4 -x {0.0 1.0 5 ------- null}
+ -t 0.25924 -s 1 -d 0 -p ack -e 40 -c 4 -i 16 -a 4 -x {1.0 0.0 5 ------- null}
- -t 0.25924 -s 1 -d 0 -p ack -e 40 -c 4 -i 16 -a 4 -x {1.0 0.0 5 ------- null}
h -t 0.25924 -s 1 -d 0 -p ack -e 40 -c 4 -i 16 -a 4 -x {1.0 0.0 -1 ------- null}
- -t 0.26256 -s 0 -d 1 -p tcp -e 1040 -c 4 -i 11 -a 4 -x {0.0 1.0 7 ------- null}
h -t 0.26256 -s 0 -d 1 -p tcp -e 1040 -c 4 -i 11 -a 4 -x {0.0 1.0 -1 ------- null}
r -t 0.26456 -s 1 -d 0 -p ack -e 40 -c 4 -i 16 -a 4 -x {1.0 0.0 5 ------- null}
+ -t 0.26456 -s 0 -d 1 -p tcp -e 1040 -c 4 -i 17 -a 4 -x {0.0 1.0 11 ------- null}
+ -t 0.26456 -s 0 -d 1 -p tcp -e 1040 -c 4 -i 18 -a 4 -x {0.0 1.0 12 ------- null}
r -t 0.26756 -s 0 -d 1 -p tcp -e 1040 -c 4 -i 9 -a 4 -x {0.0 1.0 6 ------- null}
+ -t 0.26756 -s 1 -d 0 -p ack -e 40 -c 4 -i 19 -a 4 -x {1.0 0.0 6 ------- null}
- -t 0.26756 -s 1 -d 0 -p ack -e 40 -c 4 -i 19 -a 4 -x {1.0 0.0 6 ------- null}
h -t 0.26756 -s 1 -d 0 -p ack -e 40 -c 4 -i 19 -a 4 -x {1.0 0.0 -1 ------- null}
- -t 0.27088 -s 0 -d 1 -p tcp -e 1040 -c 4 -i 12 -a 4 -x {0.0 1.0 8 ------- null}
h -t 0.27088 -s 0 -d 1 -p tcp -e 1040 -c 4 -i 12 -a 4 -x {0.0 1.0 -1 ------- null}
r -t 0.27288 -s 1 -d 0 -p ack -e 40 -c 4 -i 19 -a 4 -x {1.0 0.0 6 ------- null}
+ -t 0.27288 -s 0 -d 1 -p tcp -e 1040 -c 4 -i 20 -a 4 -x {0.0 1.0 13 ------- null}
+ -t 0.27288 -s 0 -d 1 -p tcp -e 1040 -c 4 -i 21 -a 4 -x {0.0 1.0 14 ------- null}
r -t 0.27588 -s 0 -d 1 -p tcp -e 1040 -c 4 -i 11 -a 4 -x {0.0 1.0 7 ------- null}
+ -t 0.27588 -s 1 -d 0 -p ack -e 40 -c 4 -i 22 -a 4 -x {1.0 0.0 7 ------- null}
- -t 0.27588 -s 1 -d 0 -p ack -e 40 -c 4 -i 22 -a 4 -x {1.0 0.0 7 ------- null}
h -t 0.27588 -s 1 -d 0 -p ack -e 40 -c 4 -i 22 -a 4 -x {1.0 0.0 -1 ------- null}
- -t 0.2792 -s 0 -d 1 -p tcp -e 1040 -c 4 -i 14 -a 4 -x {0.0 1.0 9 ------- null}
h -t 0.2792 -s 0 -d 1 -p tcp -e 1040 -c 4 -i 14 -a 4 -x {0.0 1.0 -1 ------- null}
r -t 0.2812 -s 1 -d 0 -p ack -e 40 -c 4 -i 22 -a 4 -x {1.0 0.0 7 ------- null}
+ -t 0.2812 -s 0 -d 1 -p tcp -e 1040 -c 4 -i 23 -a 4 -x {0.0 1.0 15 ------- null}
+ -t 0.2812 -s 0 -d 1 -p tcp -e 1040 -c 4 -i 24 -a 4 -x {0.0 1.0 16 ------- null}
r -t 0.2842 -s 0 -d 1 -p tcp -e 1040 -c 4 -i 12 -a 4 -x {0.0 1.0 8 ------- null}
+ -t 0.2842 -s 1 -d 0 -p ack -e 40 -c 4 -i 25 -a 4 -x {1.0 0.0 8 ------- null}
- -t 0.2842 -s 1 -d 0 -p ack -e 40 -c 4 -i 25 -a 4 -x {1.0 0.0 8 ------- null}
h -t 0.2842 -s 1 -d 0 -p ack -e 40 -c 4 -i 25 -a 4 -x {1.0 0.0 -1 ------- null}
- -t 0.28752 -s 0 -d 1 -p tcp -e 1040 -c 4 -i 15 -a 4 -x {0.0 1.0 10 ------- null}
h -t 0.28752 -s 0 -d 1 -p tcp -e 1040 -c 4 -i 15 -a 4 -x {0.0 1.0 -1 ------- null}
r -t 0.28952 -s 1 -d 0 -p ack -e 40 -c 4 -i 25 -a 4 -x {1.0 0.0 8 ------- null}
+ -t 0.28952 -s 0 -d 1 -p tcp -e 1040 -c 4 -i 26 -a 4 -x {0.0 1.0 17 ------- null}
+ -t 0.28952 -s 0 -d 1 -p tcp -e 1040 -c 4 -i 27 -a 4 -x {0.0 1.0 18 ------- null}
r -t 0.29252 -s 0 -d 1 -p tcp -e 1040 -c 4 -i 14 -a 4 -x {0.0 1.0 9 ------- null}
+ -t 0.29252 -s 1 -d 0 -p ack -e 40 -c 4 -i 28 -a 4 -x {1.0 0.0 9 ------- null}
- -t 0.29252 -s 1 -d 0 -p ack -e 40 -c 4 -i 28 -a 4 -x {1.0 0.0 9 ------- null}
h -t 0.29252 -s 1 -d 0 -p ack -e 40 -c 4 -i 28 -a 4 -x {1.0 0.0 -1 ------- null}
- -t 0.29584 -s 0 -d 1 -p tcp -e 1040 -c 4 -i 17 -a 4 -x {0.0 1.0 11 ------- null}
h -t 0.29584 -s 0 -d 1 -p tcp -e 1040 -c 4 -i 17 -a 4 -x {0.0 1.0 -1 ------- null}
r -t 0.29784 -s 1 -d 0 -p ack -e 40 -c 4 -i 28 -a 4 -x {1.0 0.0 9 ------- null}
+ -t 0.29784 -s 0 -d 1 -p tcp -e 1040 -c 4 -i 29 -a 4 -x {0.0 1.0 19 ------- null}
+ -t 0.29784 -s 0 -d 1 -p tcp -e 1040 -c 4 -i 30 -a 4 -x {0.0 1.0 20 ------- null}
r -t 0.30084 -s 0 -d 1 -p tcp -e 1040 -c 4 -i 15 -a 4 -x {0.0 1.0 10 ------- null}
+ -t 0.30084 -s 1 -d 0 -p ack -e 40 -c 4 -i 31 -a 4 -x {1.0 0.0 10 ------- null}
- -t 0.30084 -s 1 -d 0 -p ack -e 40 -c 4 -i 31 -a 4 -x {1.0 0.0 10 ------- null}
h -t 0.30084 -s 1 -d 0 -p ack -e 40 -c 4 -i 31 -a 4 -x {1.0 0.0 -1 ------- null}
- -t 0.30416 -s 0 -d 1 -p tcp -e 1040 -c 4 -i 18 -a 4 -x {0.0 1.0 12 ------- null}
h -t 0.30416 -s 0 -d 1 -p tcp -e 1040 -c 4 -i 18 -a 4 -x {0.0 1.0 -1 ------- null}
r -t 0.30616 -s 1 -d 0 -p ack -e 40 -c 4 -i 31 -a 4 -x {1.0 0.0 10 ------- null}
+ -t 0.30616 -s 0 -d 1 -p tcp -e 1040 -c 4 -i 32 -a 4 -x {0.0 1.0 21 ------- null}
+ -t 0.30616 -s 0 -d 1 -p tcp -e 1040 -c 4 -i 33 -a 4 -x {0.0 1.0 22 ------- null}
r -t 0.30916 -s 0 -d 1 -p tcp -e 1040 -c 4 -i 17 -a 4 -x {0.0 1.0 11 ------- null}
+ -t 0.30916 -s 1 -d 0 -p ack -e 40 -c 4 -i 34 -a 4 -x {1.0 0.0 11 ------- null}
- -t 0.30916 -s 1 -d 0 -p ack -e 40 -c 4 -i 34 -a 4 -x {1.0 0.0 11 ------- null}
h -t 0.30916 -s 1 -d 0 -p ack -e 40 -c 4 -i 34 -a 4 -x {1.0 0.0 -1 ------- null}
- -t 0.31248 -s 0 -d 1 -p tcp -e 1040 -c 4 -i 20 -a 4 -x {0.0 1.0 13 ------- null}
h -t 0.31248 -s 0 -d 1 -p tcp -e 1040 -c 4 -i 20 -a 4 -x {0.0 1.0 -1 ------- null}
r -t 0.31448 -s 1 -d 0 -p ack -e 40 -c 4 -i 34 -a 4 -x {1.0 0.0 11 ------- null}
+ -t 0.31448 -s 0 -d 1 -p tcp -e 1040 -c 4 -i 35 -a 4 -x {0.0 1.0 23 ------- null}
+ -t 0.31448 -s 0 -d 1 -p tcp -e 1040 -c 4 -i 36 -a 4 -x {0.0 1.0 24 ------- null}
r -t 0.31748 -s 0 -d 1 -p tcp -e 1040 -c 4 -i 18 -a 4 -x {0.0 1.0 12 ------- null}
+ -t 0.31748 -s 1 -d 0 -p ack -e 40 -c 4 -i 37 -a 4 -x {1.0 0.0 12 ------- null}
- -t 0.31748 -s 1 -d 0 -p ack -e 40 -c 4 -i 37 -a 4 -x {1.0 0.0 12 ------- null}
h -t 0.31748 -s 1 -d 0 -p ack -e 40 -c 4 -i 37 -a 4 -x {1.0 0.0 -1 ------- null}
- -t 0.3208 -s 0 -d 1 -p tcp -e 1040 -c 4 -i 21 -a 4 -x {0.0 1.0 14 ------- null}
h -t 0.3208 -s 0 -d 1 -p tcp -e 1040 -c 4 -i 21 -a 4 -x {0.0 1.0 -1 ------- null}
r -t 0.3228 -s 1 -d 0 -p ack -e 40 -c 4 -i 37 -a 4 -x {1.0 0.0 12 ------- null}
+ -t 0.3228 -s 0 -d 1 -p tcp -e 1040 -c 4 -i 38 -a 4 -x {0.0 1.0 25 ------- null}
+ -t 0.3228 -s 0 -d 1 -p tcp -e 1040 -c 4 -i 39 -a 4 -x {0.0 1.0 26 ------- null}
r -t 0.3258 -s 0 -d 1 -p tcp -e 1040 -c 4 -i 20 -a 4 -x {0.0 1.0 13 ------- null}
+ -t 0.3258 -s 1 -d 0 -p ack -e 40 -c 4 -i 40 -a 4 -x {1.0 0.0 13 ------- null}
- -t 0.3258 -s 1 -d 0 -p ack -e 40 -c 4 -i 40 -a 4 -x {1.0 0.0 13 ------- null}
h -t 0.3258 -s 1 -d 0 -p ack -e 40 -c 4 -i 40 -a 4 -x {1.0 0.0 -1 ------- null}
- -t 0.32912 -s 0 -d 1 -p tcp -e 1040 -c 4 -i 23 -a 4 -x {0.0 1.0 15 ------- null}
h -t 0.32912 -s 0 -d 1 -p tcp -e 1040 -c 4 -i 23 -a 4 -x {0.0 1.0 -1 ------- null}
r -t 0.33112 -s 1 -d 0 -p ack -e 40 -c 4 -i 40 -a 4 -x {1.0 0.0 13 ------- null}
+ -t 0.33112 -s 0 -d 1 -p tcp -e 1040 -c 4 -i 41 -a 4 -x {0.0 1.0 27 ------- null}
+ -t 0.33112 -s 0 -d 1 -p tcp -e 1040 -c 4 -i 42 -a 4 -x {0.0 1.0 28 ------- null}
r -t 0.33412 -s 0 -d 1 -p tcp -e 1040 -c 4 -i 21 -a 4 -x {0.0 1.0 14 ------- null}
+ -t 0.33412 -s 1 -d 0 -p ack -e 40 -c 4 -i 43 -a 4 -x {1.0 0.0 14 ------- null}
- -t 0.33412 -s 1 -d 0 -p ack -e 40 -c 4 -i 43 -a 4 -x {1.0 0.0 14 ------- null}
h -t 0.33412 -s 1 -d 0 -p ack -e 40 -c 4 -i 43 -a 4 -x {1.0 0.0 -1 ------- null}
- -t 0.33744 -s 0 -d 1 -p tcp -e 1040 -c 4 -i 24 -a 4 -x {0.0 1.0 16 ------- null}
h -t 0.33744 -s 0 -d 1 -p tcp -e 1040 -c 4 -i 24 -a 4 -x {0.0 1.0 -1 ------- null}
r -t 0.33944 -s 1 -d 0 -p ack -e 40 -c 4 -i 43 -a 4 -x {1.0 0.0 14 ------- null}
+ -t 0.33944 -s 0 -d 1 -p tcp -e 1040 -c 4 -i 44 -a 4 -x {0.0 1.0 29 ------- null}
+ -t 0.33944 -s 0 -d 1 -p tcp -e 1040 -c 4 -i 45 -a 4 -x {0.0 1.0 30 ------- null}
r -t 0.34244 -s 0 -d 1 -p tcp -e 1040 -c 4 -i 23 -a 4 -x {0.0 1.0 15 ------- null}
+ -t 0.34244 -s 1 -d 0 -p ack -e 40 -c 4 -i 46 -a 4 -x {1.0 0.0 15 ------- null}
- -t 0.34244 -s 1 -d 0 -p ack -e 40 -c 4 -i 46 -a 4 -x {1.0 0.0 15 ------- null}
h -t 0.34244 -s 1 -d 0 -p ack -e 40 -c 4 -i 46 -a 4 -x {1.0 0.0 -1 ------- null}
- -t 0.34576 -s 0 -d 1 -p tcp -e 1040 -c 4 -i 26 -a 4 -x {0.0 1.0 17 ------- null}
h -t 0.34576 -s 0 -d 1 -p tcp -e 1040 -c 4 -i 26 -a 4 -x {0.0 1.0 -1 ------- null}
r -t 0.34776 -s 1 -d 0 -p ack -e 40 -c 4 -i 46 -a 4 -x {1.0 0.0 15 ------- null}
+ -t 0.34776 -s 0 -d 1 -p tcp -e 1040 -c 4 -i 47 -a 4 -x {0.0 1.0 31 ------- null}
+ -t 0.34776 -s 0 -d 1 -p tcp -e 1040 -c 4 -i 48 -a 4 -x {0.0 1.0 32 ------- null}
r -t 0.35076 -s 0 -d 1 -p tcp -e 1040 -c 4 -i 24 -a 4 -x {0.0 1.0 16 ------- null}
+ -t 0.35076 -s 1 -d 0 -p ack -e 40 -c 4 -i 49 -a 4 -x {1.0 0.0 16 ------- null}
- -t 0.35076 -s 1 -d 0 -p ack -e 40 -c 4 -i 49 -a 4 -x {1.0 0.0 16 ------- null}
h -t 0.35076 -s 1 -d 0 -p ack -e 40 -c 4 -i 49 -a 4 -x {1.0 0.0 -1 ------- null}
- -t 0.35408 -s 0 -d 1 -p tcp -e 1040 -c 4 -i 27 -a 4 -x {0.0 1.0 18 ------- null}
h -t 0.35408 -s 0 -d 1 -p tcp -e 1040 -c 4 -i 27 -a 4 -x {0.0 1.0 -1 ------- null}
r -t 0.35608 -s 1 -d 0 -p ack -e 40 -c 4 -i 49 -a 4 -x {1.0 0.0 16 ------- null}
+ -t 0.35608 -s 0 -d 1 -p tcp -e 1040 -c 4 -i 50 -a 4 -x {0.0 1.0 33 ------- null}
+ -t 0.35608 -s 0 -d 1 -p tcp -e 1040 -c 4 -i 51 -a 4 -x {0.0 1.0 34 ------- null}
r -t 0.35908 -s 0 -d 1 -p tcp -e 1040 -c 4 -i 26 -a 4 -x {0.0 1.0 17 ------- null}
+ -t 0.35908 -s 1 -d 0 -p ack -e 40 -c 4 -i 52 -a 4 -x {1.0 0.0 17 ------- null}
- -t 0.35908 -s 1 -d 0 -p ack -e 40 -c 4 -i 52 -a 4 -x {1.0 0.0 17 ------- null}
h -t 0.35908 -s 1 -d 0 -p ack -e 40 -c 4 -i 52 -a 4 -x {1.0 0.0 -1 ------- null}
- -t 0.3624 -s 0 -d 1 -p tcp -e 1040 -c 4 -i 29 -a 4 -x {0.0 1.0 19 ------- null}
h -t 0.3624 -s 0 -d 1 -p tcp -e 1040 -c 4 -i 29 -a 4 -x {0.0 1.0 -1 ------- null}
r -t 0.3644 -s 1 -d 0 -p ack -e 40 -c 4 -i 52 -a 4 -x {1.0 0.0 17 ------- null}
+ -t 0.3644 -s 0 -d 1 -p tcp -e 1040 -c 4 -i 53 -a 4 -x {0.0 1.0 35 ------- null}
+ -t 0.3644 -s 0 -d 1 -p tcp -e 1040 -c 4 -i 54 -a 4 -x {0.0 1.0 36 ------- null}
r -t 0.3674 -s 0 -d 1 -p tcp -e 1040 -c 4 -i 27 -a 4 -x {0.0 1.0 18 ------- null}
+ -t 0.3674 -s 1 -d 0 -p ack -e 40 -c 4 -i 55 -a 4 -x {1.0 0.0 18 ------- null}
- -t 0.3674 -s 1 -d 0 -p ack -e 40 -c 4 -i 55 -a 4 -x {1.0 0.0 18 ------- null}
h -t 0.3674 -s 1 -d 0 -p ack -e 40 -c 4 -i 55 -a 4 -x {1.0 0.0 -1 ------- null}
- -t 0.37072 -s 0 -d 1 -p tcp -e 1040 -c 4 -i 30 -a 4 -x {0.0 1.0 20 ------- null}
h -t 0.37072 -s 0 -d 1 -p tcp -e 1040 -c 4 -i 30 -a 4 -x {0.0 1.0 -1 ------- null}
r -t 0.37272 -s 1 -d 0 -p ack -e 40 -c 4 -i 55 -a 4 -x {1.0 0.0 18 ------- null}
+ -t 0.37272 -s 0 -d 1 -p tcp -e 1040 -c 4 -i 56 -a 4 -x {0.0 1.0 37 ------- null}
+ -t 0.37272 -s 0 -d 1 -p tcp -e 1040 -c 4 -i 57 -a 4 -x {0.0 1.0 38 ------- null}
r -t 0.37572 -s 0 -d 1 -p tcp -e 1040 -c 4 -i 29 -a 4 -x {0.0 1.0 19 ------- null}
+ -t 0.37572 -s 1 -d 0 -p ack -e 40 -c 4 -i 58 -a 4 -x {1.0 0.0 19 ------- null}
- -t 0.37572 -s 1 -d 0 -p ack -e 40 -c 4 -i 58 -a 4 -x {1.0 0.0 19 ------- null}
h -t 0.37572 -s 1 -d 0 -p ack -e 40 -c 4 -i 58 -a 4 -x {1.0 0.0 -1 ------- null}
- -t 0.37904 -s 0 -d 1 -p tcp -e 1040 -c 4 -i 32 -a 4 -x {0.0 1.0 21 ------- null}
h -t 0.37904 -s 0 -d 1 -p tcp -e 1040 -c 4 -i 32 -a 4 -x {0.0 1.0 -1 ------- null}
r -t 0.38104 -s 1 -d 0 -p ack -e 40 -c 4 -i 58 -a 4 -x {1.0 0.0 19 ------- null}
+ -t 0.38104 -s 0 -d 1 -p tcp -e 1040 -c 4 -i 59 -a 4 -x {0.0 1.0 39 ------- null}
r -t 0.38404 -s 0 -d 1 -p tcp -e 1040 -c 4 -i 30 -a 4 -x {0.0 1.0 20 ------- null}
+ -t 0.38404 -s 1 -d 0 -p ack -e 40 -c 4 -i 60 -a 4 -x {1.0 0.0 20 ------- null}
- -t 0.38404 -s 1 -d 0 -p ack -e 40 -c 4 -i 60 -a 4 -x {1.0 0.0 20 ------- null}
h -t 0.38404 -s 1 -d 0 -p ack -e 40 -c 4 -i 60 -a 4 -x {1.0 0.0 -1 ------- null}
- -t 0.38736 -s 0 -d 1 -p tcp -e 1040 -c 4 -i 33 -a 4 -x {0.0 1.0 22 ------- null}
h -t 0.38736 -s 0 -d 1 -p tcp -e 1040 -c 4 -i 33 -a 4 -x {0.0 1.0 -1 ------- null}
r -t 0.38936 -s 1 -d 0 -p ack -e 40 -c 4 -i 60 -a 4 -x {1.0 0.0 20 ------- null}
+ -t 0.38936 -s 0 -d 1 -p tcp -e 1040 -c 4 -i 61 -a 4 -x {0.0 1.0 40 ------- null}
r -t 0.39236 -s 0 -d 1 -p tcp -e 1040 -c 4 -i 32 -a 4 -x {0.0 1.0 21 ------- null}
+ -t 0.39236 -s 1 -d 0 -p ack -e 40 -c 4 -i 62 -a 4 -x {1.0 0.0 21 ------- null}
- -t 0.39236 -s 1 -d 0 -p ack -e 40 -c 4 -i 62 -a 4 -x {1.0 0.0 21 ------- null}
h -t 0.39236 -s 1 -d 0 -p ack -e 40 -c 4 -i 62 -a 4 -x {1.0 0.0 -1 ------- null}
- -t 0.39568 -s 0 -d 1 -p tcp -e 1040 -c 4 -i 35 -a 4 -x {0.0 1.0 23 ------- null}
h -t 0.39568 -s 0 -d 1 -p tcp -e 1040 -c 4 -i 35 -a 4 -x {0.0 1.0 -1 ------- null}
r -t 0.39768 -s 1 -d 0 -p ack -e 40 -c 4 -i 62 -a 4 -x {1.0 0.0 21 ------- null}
+ -t 0.39768 -s 0 -d 1 -p tcp -e 1040 -c 4 -i 63 -a 4 -x {0.0 1.0 41 ------- null}
r -t 0.40068 -s 0 -d 1 -p tcp -e 1040 -c 4 -i 33 -a 4 -x {0.0 1.0 22 ------- null}
+ -t 0.40068 -s 1 -d 0 -p ack -e 40 -c 4 -i 64 -a 4 -x {1.0 0.0 22 ------- null}
- -t 0.40068 -s 1 -d 0 -p ack -e 40 -c 4 -i 64 -a 4 -x {1.0 0.0 22 ------- null}
h -t 0.40068 -s 1 -d 0 -p ack -e 40 -c 4 -i 64 -a 4 -x {1.0 0.0 -1 ------- null}
- -t 0.404 -s 0 -d 1 -p tcp -e 1040 -c 4 -i 36 -a 4 -x {0.0 1.0 24 ------- null}
h -t 0.404 -s 0 -d 1 -p tcp -e 1040 -c 4 -i 36 -a 4 -x {0.0 1.0 -1 ------- null}
r -t 0.406 -s 1 -d 0 -p ack -e 40 -c 4 -i 64 -a 4 -x {1.0 0.0 22 ------- null}
+ -t 0.406 -s 0 -d 1 -p tcp -e 1040 -c 4 -i 65 -a 4 -x {0.0 1.0 42 ------- null}
r -t 0.409 -s 0 -d 1 -p tcp -e 1040 -c 4 -i 35 -a 4 -x {0.0 1.0 23 ------- null}
+ -t 0.409 -s 1 -d 0 -p ack -e 40 -c 4 -i 66 -a 4 -x {1.0 0.0 23 ------- null}
- -t 0.409 -s 1 -d 0 -p ack -e 40 -c 4 -i 66 -a 4 -x {1.0 0.0 23 ------- null}
h -t 0.409 -s 1 -d 0 -p ack -e 40 -c 4 -i 66 -a 4 -x {1.0 0.0 -1 ------- null}
- -t 0.41232 -s 0 -d 1 -p tcp -e 1040 -c 4 -i 38 -a 4 -x {0.0 1.0 25 ------- null}
h -t 0.41232 -s 0 -d 1 -p tcp -e 1040 -c 4 -i 38 -a 4 -x {0.0 1.0 -1 ------- null}
r -t 0.41432 -s 1 -d 0 -p ack -e 40 -c 4 -i 66 -a 4 -x {1.0 0.0 23 ------- null}
+ -t 0.41432 -s 0 -d 1 -p tcp -e 1040 -c 4 -i 67 -a 4 -x {0.0 1.0 43 ------- null}
r -t 0.41732 -s 0 -d 1 -p tcp -e 1040 -c 4 -i 36 -a 4 -x {0.0 1.0 24 ------- null}
+ -t 0.41732 -s 1 -d 0 -p ack -e 40 -c 4 -i 68 -a 4 -x {1.0 0.0 24 ------- null}
- -t 0.41732 -s 1 -d 0 -p ack -e 40 -c 4 -i 68 -a 4 -x {1.0 0.0 24 ------- null}
h -t 0.41732 -s 1 -d 0 -p ack -e 40 -c 4 -i 68 -a 4 -x {1.0 0.0 -1 ------- null}
- -t 0.42064 -s 0 -d 1 -p tcp -e 1040 -c 4 -i 39 -a 4 -x {0.0 1.0 26 ------- null}
h -t 0.42064 -s 0 -d 1 -p tcp -e 1040 -c 4 -i 39 -a 4 -x {0.0 1.0 -1 ------- null}
r -t 0.42264 -s 1 -d 0 -p ack -e 40 -c 4 -i 68 -a 4 -x {1.0 0.0 24 ------- null}
+ -t 0.42264 -s 0 -d 1 -p tcp -e 1040 -c 4 -i 69 -a 4 -x {0.0 1.0 44 ------- null}
r -t 0.42564 -s 0 -d 1 -p tcp -e 1040 -c 4 -i 38 -a 4 -x {0.0 1.0 25 ------- null}
+ -t 0.42564 -s 1 -d 0 -p ack -e 40 -c 4 -i 70 -a 4 -x {1.0 0.0 25 ------- null}
- -t 0.42564 -s 1 -d 0 -p ack -e 40 -c 4 -i 70 -a 4 -x {1.0 0.0 25 ------- null}
h -t 0.42564 -s 1 -d 0 -p ack -e 40 -c 4 -i 70 -a 4 -x {1.0 0.0 -1 ------- null}
- -t 0.42896 -s 0 -d 1 -p tcp -e 1040 -c 4 -i 41 -a 4 -x {0.0 1.0 27 ------- null}
h -t 0.42896 -s 0 -d 1 -p tcp -e 1040 -c 4 -i 41 -a 4 -x {0.0 1.0 -1 ------- null}
r -t 0.43096 -s 1 -d 0 -p ack -e 40 -c 4 -i 70 -a 4 -x {1.0 0.0 25 ------- null}
+ -t 0.43096 -s 0 -d 1 -p tcp -e 1040 -c 4 -i 71 -a 4 -x {0.0 1.0 45 ------- null}
r -t 0.43396 -s 0 -d 1 -p tcp -e 1040 -c 4 -i 39 -a 4 -x {0.0 1.0 26 ------- null}
+ -t 0.43396 -s 1 -d 0 -p ack -e 40 -c 4 -i 72 -a 4 -x {1.0 0.0 26 ------- null}
- -t 0.43396 -s 1 -d 0 -p ack -e 40 -c 4 -i 72 -a 4 -x {1.0 0.0 26 ------- null}
h -t 0.43396 -s 1 -d 0 -p ack -e 40 -c 4 -i 72 -a 4 -x {1.0 0.0 -1 ------- null}
- -t 0.43728 -s 0 -d 1 -p tcp -e 1040 -c 4 -i 42 -a 4 -x {0.0 1.0 28 ------- null}
h -t 0.43728 -s 0 -d 1 -p tcp -e 1040 -c 4 -i 42 -a 4 -x {0.0 1.0 -1 ------- null}
r -t 0.43928 -s 1 -d 0 -p ack -e 40 -c 4 -i 72 -a 4 -x {1.0 0.0 26 ------- null}
+ -t 0.43928 -s 0 -d 1 -p tcp -e 1040 -c 4 -i 73 -a 4 -x {0.0 1.0 46 ------- null}
r -t 0.44228 -s 0 -d 1 -p tcp -e 1040 -c 4 -i 41 -a 4 -x {0.0 1.0 27 ------- null}
+ -t 0.44228 -s 1 -d 0 -p ack -e 40 -c 4 -i 74 -a 4 -x {1.0 0.0 27 ------- null}
- -t 0.44228 -s 1 -d 0 -p ack -e 40 -c 4 -i 74 -a 4 -x {1.0 0.0 27 ------- null}
h -t 0.44228 -s 1 -d 0 -p ack -e 40 -c 4 -i 74 -a 4 -x {1.0 0.0 -1 ------- null}
- -t 0.4456 -s 0 -d 1 -p tcp -e 1040 -c 4 -i 44 -a 4 -x {0.0 1.0 29 ------- null}
h -t 0.4456 -s 0 -d 1 -p tcp -e 1040 -c 4 -i 44 -a 4 -x {0.0 1.0 -1 ------- null}
r -t 0.4476 -s 1 -d 0 -p ack -e 40 -c 4 -i 74 -a 4 -x {1.0 0.0 27 ------- null}
+ -t 0.4476 -s 0 -d 1 -p tcp -e 1040 -c 4 -i 75 -a 4 -x {0.0 1.0 47 ------- null}
r -t 0.4506 -s 0 -d 1 -p tcp -e 1040 -c 4 -i 42 -a 4 -x {0.0 1.0 28 ------- null}
+ -t 0.4506 -s 1 -d 0 -p ack -e 40 -c 4 -i 76 -a 4 -x {1.0 0.0 28 ------- null}
- -t 0.4506 -s 1 -d 0 -p ack -e 40 -c 4 -i 76 -a 4 -x {1.0 0.0 28 ------- null}
h -t 0.4506 -s 1 -d 0 -p ack -e 40 -c 4 -i 76 -a 4 -x {1.0 0.0 -1 ------- null}
- -t 0.45392 -s 0 -d 1 -p tcp -e 1040 -c 4 -i 45 -a 4 -x {0.0 1.0 30 ------- null}
h -t 0.45392 -s 0 -d 1 -p tcp -e 1040 -c 4 -i 45 -a 4 -x {0.0 1.0 -1 ------- null}
r -t 0.45592 -s 1 -d 0 -p ack -e 40 -c 4 -i 76 -a 4 -x {1.0 0.0 28 ------- null}
+ -t 0.45592 -s 0 -d 1 -p tcp -e 1040 -c 4 -i 77 -a 4 -x {0.0 1.0 48 ------- null}
r -t 0.45892 -s 0 -d 1 -p tcp -e 1040 -c 4 -i 44 -a 4 -x {0.0 1.0 29 ------- null}
+ -t 0.45892 -s 1 -d 0 -p ack -e 40 -c 4 -i 78 -a 4 -x {1.0 0.0 29 ------- null}
- -t 0.45892 -s 1 -d 0 -p ack -e 40 -c 4 -i 78 -a 4 -x {1.0 0.0 29 ------- null}
h -t 0.45892 -s 1 -d 0 -p ack -e 40 -c 4 -i 78 -a 4 -x {1.0 0.0 -1 ------- null}
- -t 0.46224 -s 0 -d 1 -p tcp -e 1040 -c 4 -i 47 -a 4 -x {0.0 1.0 31 ------- null}
h -t 0.46224 -s 0 -d 1 -p tcp -e 1040 -c 4 -i 47 -a 4 -x {0.0 1.0 -1 ------- null}
r -t 0.46424 -s 1 -d 0 -p ack -e 40 -c 4 -i 78 -a 4 -x {1.0 0.0 29 ------- null}
+ -t 0.46424 -s 0 -d 1 -p tcp -e 1040 -c 4 -i 79 -a 4 -x {0.0 1.0 49 ------- null}
r -t 0.46724 -s 0 -d 1 -p tcp -e 1040 -c 4 -i 45 -a 4 -x {0.0 1.0 30 ------- null}
+ -t 0.46724 -s 1 -d 0 -p ack -e 40 -c 4 -i 80 -a 4 -x {1.0 0.0 30 ------- null}
- -t 0.46724 -s 1 -d 0 -p ack -e 40 -c 4 -i 80 -a 4 -x {1.0 0.0 30 ------- null}
h -t 0.46724 -s 1 -d 0 -p ack -e 40 -c 4 -i 80 -a 4 -x {1.0 0.0 -1 ------- null}
- -t 0.47056 -s 0 -d 1 -p tcp -e 1040 -c 4 -i 48 -a 4 -x {0.0 1.0 32 ------- null}
h -t 0.47056 -s 0 -d 1 -p tcp -e 1040 -c 4 -i 48 -a 4 -x {0.0 1.0 -1 ------- null}
r -t 0.47256 -s 1 -d 0 -p ack -e 40 -c 4 -i 80 -a 4 -x {1.0 0.0 30 ------- null}
+ -t 0.47256 -s 0 -d 1 -p tcp -e 1040 -c 4 -i 81 -a 4 -x {0.0 1.0 50 ------- null}
r -t 0.47556 -s 0 -d 1 -p tcp -e 1040 -c 4 -i 47 -a 4 -x {0.0 1.0 31 ------- null}
+ -t 0.47556 -s 1 -d 0 -p ack -e 40 -c 4 -i 82 -a 4 -x {1.0 0.0 31 ------- null}
- -t 0.47556 -s 1 -d 0 -p ack -e 40 -c 4 -i 82 -a 4 -x {1.0 0.0 31 ------- null}
h -t 0.47556 -s 1 -d 0 -p ack -e 40 -c 4 -i 82 -a 4 -x {1.0 0.0 -1 ------- null}
- -t 0.47888 -s 0 -d 1 -p tcp -e 1040 -c 4 -i 50 -a 4 -x {0.0 1.0 33 ------- null}
h -t 0.47888 -s 0 -d 1 -p tcp -e 1040 -c 4 -i 50 -a 4 -x {0.0 1.0 -1 ------- null}
r -t 0.48088 -s 1 -d 0 -p ack -e 40 -c 4 -i 82 -a 4 -x {1.0 0.0 31 ------- null}
+ -t 0.48088 -s 0 -d 1 -p tcp -e 1040 -c 4 -i 83 -a 4 -x {0.0 1.0 51 ------- null}
r -t 0.48388 -s 0 -d 1 -p tcp -e 1040 -c 4 -i 48 -a 4 -x {0.0 1.0 32 ------- null}
+ -t 0.48388 -s 1 -d 0 -p ack -e 40 -c 4 -i 84 -a 4 -x {1.0 0.0 32 ------- null}
- -t 0.48388 -s 1 -d 0 -p ack -e 40 -c 4 -i 84 -a 4 -x {1.0 0.0 32 ------- null}
h -t 0.48388 -s 1 -d 0 -p ack -e 40 -c 4 -i 84 -a 4 -x {1.0 0.0 -1 ------- null}
- -t 0.4872 -s 0 -d 1 -p tcp -e 1040 -c 4 -i 51 -a 4 -x {0.0 1.0 34 ------- null}
h -t 0.4872 -s 0 -d 1 -p tcp -e 1040 -c 4 -i 51 -a 4 -x {0.0 1.0 -1 ------- null}
r -t 0.4892 -s 1 -d 0 -p ack -e 40 -c 4 -i 84 -a 4 -x {1.0 0.0 32 ------- null}
+ -t 0.4892 -s 0 -d 1 -p tcp -e 1040 -c 4 -i 85 -a 4 -x {0.0 1.0 52 ------- null}
r -t 0.4922 -s 0 -d 1 -p tcp -e 1040 -c 4 -i 50 -a 4 -x {0.0 1.0 33 ------- null}
+ -t 0.4922 -s 1 -d 0 -p ack -e 40 -c 4 -i 86 -a 4 -x {1.0 0.0 33 ------- null}
- -t 0.4922 -s 1 -d 0 -p ack -e 40 -c 4 -i 86 -a 4 -x {1.0 0.0 33 ------- null}
h -t 0.4922 -s 1 -d 0 -p ack -e 40 -c 4 -i 86 -a 4 -x {1.0 0.0 -1 ------- null}
- -t 0.49552 -s 0 -d 1 -p tcp -e 1040 -c 4 -i 53 -a 4 -x {0.0 1.0 35 ------- null}
h -t 0.49552 -s 0 -d 1 -p tcp -e 1040 -c 4 -i 53 -a 4 -x {0.0 1.0 -1 ------- null}
r -t 0.49752 -s 1 -d 0 -p ack -e 40 -c 4 -i 86 -a 4 -x {1.0 0.0 33 ------- null}
+ -t 0.49752 -s 0 -d 1 -p tcp -e 1040 -c 4 -i 87 -a 4 -x {0.0 1.0 53 ------- null}
r -t 0.50052 -s 0 -d 1 -p tcp -e 1040 -c 4 -i 51 -a 4 -x {0.0 1.0 34 ------- null}
+ -t 0.50052 -s 1 -d 0 -p ack -e 40 -c 4 -i 88 -a 4 -x {1.0 0.0 34 ------- null}
- -t 0.50052 -s 1 -d 0 -p ack -e 40 -c 4 -i 88 -a 4 -x {1.0 0.0 34 ------- null}
h -t 0.50052 -s 1 -d 0 -p ack -e 40 -c 4 -i 88 -a 4 -x {1.0 0.0 -1 ------- null}
- -t 0.50384 -s 0 -d 1 -p tcp -e 1040 -c 4 -i 54 -a 4 -x {0.0 1.0 36 ------- null}
h -t 0.50384 -s 0 -d 1 -p tcp -e 1040 -c 4 -i 54 -a 4 -x {0.0 1.0 -1 ------- null}
r -t 0.50584 -s 1 -d 0 -p ack -e 40 -c 4 -i 88 -a 4 -x {1.0 0.0 34 ------- null}
+ -t 0.50584 -s 0 -d 1 -p tcp -e 1040 -c 4 -i 89 -a 4 -x {0.0 1.0 54 ------- null}
r -t 0.50884 -s 0 -d 1 -p tcp -e 1040 -c 4 -i 53 -a 4 -x {0.0 1.0 35 ------- null}
+ -t 0.50884 -s 1 -d 0 -p ack -e 40 -c 4 -i 90 -a 4 -x {1.0 0.0 35 ------- null}
- -t 0.50884 -s 1 -d 0 -p ack -e 40 -c 4 -i 90 -a 4 -x {1.0 0.0 35 ------- null}
h -t 0.50884 -s 1 -d 0 -p ack -e 40 -c 4 -i 90 -a 4 -x {1.0 0.0 -1 ------- null}
- -t 0.51216 -s 0 -d 1 -p tcp -e 1040 -c 4 -i 56 -a 4 -x {0.0 1.0 37 ------- null}
h -t 0.51216 -s 0 -d 1 -p tcp -e 1040 -c 4 -i 56 -a 4 -x {0.0 1.0 -1 ------- null}
r -t 0.51416 -s 1 -d 0 -p ack -e 40 -c 4 -i 90 -a 4 -x {1.0 0.0 35 ------- null}
+ -t 0.51416 -s 0 -d 1 -p tcp -e 1040 -c 4 -i 91 -a 4 -x {0.0 1.0 55 ------- null}
r -t 0.51716 -s 0 -d 1 -p tcp -e 1040 -c 4 -i 54 -a 4 -x {0.0 1.0 36 ------- null}
+ -t 0.51716 -s 1 -d 0 -p ack -e 40 -c 4 -i 92 -a 4 -x {1.0 0.0 36 ------- null}
- -t 0.51716 -s 1 -d 0 -p ack -e 40 -c 4 -i 92 -a 4 -x {1.0 0.0 36 ------- null}
h -t 0.51716 -s 1 -d 0 -p ack -e 40 -c 4 -i 92 -a 4 -x {1.0 0.0 -1 ------- null}
- -t 0.52048 -s 0 -d 1 -p tcp -e 1040 -c 4 -i 57 -a 4 -x {0.0 1.0 38 ------- null}
h -t 0.52048 -s 0 -d 1 -p tcp -e 1040 -c 4 -i 57 -a 4 -x {0.0 1.0 -1 ------- null}
r -t 0.52248 -s 1 -d 0 -p ack -e 40 -c 4 -i 92 -a 4 -x {1.0 0.0 36 ------- null}
+ -t 0.52248 -s 0 -d 1 -p tcp -e 1040 -c 4 -i 93 -a 4 -x {0.0 1.0 56 ------- null}
r -t 0.52548 -s 0 -d 1 -p tcp -e 1040 -c 4 -i 56 -a 4 -x {0.0 1.0 37 ------- null}
+ -t 0.52548 -s 1 -d 0 -p ack -e 40 -c 4 -i 94 -a 4 -x {1.0 0.0 37 ------- null}
- -t 0.52548 -s 1 -d 0 -p ack -e 40 -c 4 -i 94 -a 4 -x {1.0 0.0 37 ------- null}
h -t 0.52548 -s 1 -d 0 -p ack -e 40 -c 4 -i 94 -a 4 -x {1.0 0.0 -1 ------- null}
- -t 0.5288 -s 0 -d 1 -p tcp -e 1040 -c 4 -i 59 -a 4 -x {0.0 1.0 39 ------- null}
h -t 0.5288 -s 0 -d 1 -p tcp -e 1040 -c 4 -i 59 -a 4 -x {0.0 1.0 -1 ------- null}
r -t 0.5308 -s 1 -d 0 -p ack -e 40 -c 4 -i 94 -a 4 -x {1.0 0.0 37 ------- null}
+ -t 0.5308 -s 0 -d 1 -p tcp -e 1040 -c 4 -i 95 -a 4 -x {0.0 1.0 57 ------- null}
r -t 0.5338 -s 0 -d 1 -p tcp -e 1040 -c 4 -i 57 -a 4 -x {0.0 1.0 38 ------- null}
+ -t 0.5338 -s 1 -d 0 -p ack -e 40 -c 4 -i 96 -a 4 -x {1.0 0.0 38 ------- null}
- -t 0.5338 -s 1 -d 0 -p ack -e 40 -c 4 -i 96 -a 4 -x {1.0 0.0 38 ------- null}
h -t 0.5338 -s 1 -d 0 -p ack -e 40 -c 4 -i 96 -a 4 -x {1.0 0.0 -1 ------- null}
- -t 0.53712 -s 0 -d 1 -p tcp -e 1040 -c 4 -i 61 -a 4 -x {0.0 1.0 40 ------- null}
h -t 0.53712 -s 0 -d 1 -p tcp -e 1040 -c 4 -i 61 -a 4 -x {0.0 1.0 -1 ------- null}
r -t 0.53912 -s 1 -d 0 -p ack -e 40 -c 4 -i 96 -a 4 -x {1.0 0.0 38 ------- null}
+ -t 0.53912 -s 0 -d 1 -p tcp -e 1040 -c 4 -i 97 -a 4 -x {0.0 1.0 58 ------- null}
r -t 0.54212 -s 0 -d 1 -p tcp -e 1040 -c 4 -i 59 -a 4 -x {0.0 1.0 39 ------- null}
+ -t 0.54212 -s 1 -d 0 -p ack -e 40 -c 4 -i 98 -a 4 -x {1.0 0.0 39 ------- null}
- -t 0.54212 -s 1 -d 0 -p ack -e 40 -c 4 -i 98 -a 4 -x {1.0 0.0 39 ------- null}
h -t 0.54212 -s 1 -d 0 -p ack -e 40 -c 4 -i 98 -a 4 -x {1.0 0.0 -1 ------- null}
- -t 0.54544 -s 0 -d 1 -p tcp -e 1040 -c 4 -i 63 -a 4 -x {0.0 1.0 41 ------- null}
h -t 0.54544 -s 0 -d 1 -p tcp -e 1040 -c 4 -i 63 -a 4 -x {0.0 1.0 -1 ------- null}
r -t 0.54744 -s 1 -d 0 -p ack -e 40 -c 4 -i 98 -a 4 -x {1.0 0.0 39 ------- null}
+ -t 0.54744 -s 0 -d 1 -p tcp -e 1040 -c 4 -i 99 -a 4 -x {0.0 1.0 59 ------- null}
r -t 0.55044 -s 0 -d 1 -p tcp -e 1040 -c 4 -i 61 -a 4 -x {0.0 1.0 40 ------- null}
+ -t 0.55044 -s 1 -d 0 -p ack -e 40 -c 4 -i 100 -a 4 -x {1.0 0.0 40 ------- null}
- -t 0.55044 -s 1 -d 0 -p ack -e 40 -c 4 -i 100 -a 4 -x {1.0 0.0 40 ------- null}
h -t 0.55044 -s 1 -d 0 -p ack -e 40 -c 4 -i 100 -a 4 -x {1.0 0.0 -1 ------- null}
- -t 0.55376 -s 0 -d 1 -p tcp -e 1040 -c 4 -i 65 -a 4 -x {0.0 1.0 42 ------- null}
h -t 0.55376 -s 0 -d 1 -p tcp -e 1040 -c 4 -i 65 -a 4 -x {0.0 1.0 -1 ------- null}
r -t 0.55576 -s 1 -d 0 -p ack -e 40 -c 4 -i 100 -a 4 -x {1.0 0.0 40 ------- null}
+ -t 0.55576 -s 0 -d 1 -p tcp -e 1040 -c 4 -i 101 -a 4 -x {0.0 1.0 60 ------- null}
r -t 0.55876 -s 0 -d 1 -p tcp -e 1040 -c 4 -i 63 -a 4 -x {0.0 1.0 41 ------- null}
+ -t 0.55876 -s 1 -d 0 -p ack -e 40 -c 4 -i 102 -a 4 -x {1.0 0.0 41 ------- null}
- -t 0.55876 -s 1 -d 0 -p ack -e 40 -c 4 -i 102 -a 4 -x {1.0 0.0 41 ------- null}
h -t 0.55876 -s 1 -d 0 -p ack -e 40 -c 4 -i 102 -a 4 -x {1.0 0.0 -1 ------- null}
- -t 0.56208 -s 0 -d 1 -p tcp -e 1040 -c 4 -i 67 -a 4 -x {0.0 1.0 43 ------- null}
h -t 0.56208 -s 0 -d 1 -p tcp -e 1040 -c 4 -i 67 -a 4 -x {0.0 1.0 -1 ------- null}
r -t 0.56408 -s 1 -d 0 -p ack -e 40 -c 4 -i 102 -a 4 -x {1.0 0.0 41 ------- null}
+ -t 0.56408 -s 0 -d 1 -p tcp -e 1040 -c 4 -i 103 -a 4 -x {0.0 1.0 61 ------- null}
r -t 0.56708 -s 0 -d 1 -p tcp -e 1040 -c 4 -i 65 -a 4 -x {0.0 1.0 42 ------- null}
+ -t 0.56708 -s 1 -d 0 -p ack -e 40 -c 4 -i 104 -a 4 -x {1.0 0.0 42 ------- null}
- -t 0.56708 -s 1 -d 0 -p ack -e 40 -c 4 -i 104 -a 4 -x {1.0 0.0 42 ------- null}