+ 0.2 0 1 tcp 40 ------- 4 0.0 1.0 0 0
- 0.2 0 1 tcp 40 ------- 4 0.0 1.0 0 0
r 0.20532 0 1 tcp 40 ------- 4 0.0 1.0 0 0
+ 0.20532 1 0 ack 40 ------- 4 1.0 0.0 0 1
- 0.20532 1 0 ack 40 ------- 4 1.0 0.0 0 1
r 0.21064 1 0 ack 40 ------- 4 1.0 0.0 0 1
+ 0.21064 0 1 tcp 1040 ------- 4 0.0 1.0 1 2
- 0.21064 0 1 tcp 1040 ------- 4 0.0 1.0 1 2
+ 0.21064 0 1 tcp 1040 ------- 4 0.0 1.0 2 3
- 0.21896 0 1 tcp 1040 ------- 4 0.0 1.0 2 3
r 0.22396 0 1 tcp 1040 ------- 4 0.0 1.0 1 2
+ 0.22396 1 0 ack 40 ------- 4 1.0 0.0 1 4
- 0.22396 1 0 ack 40 ------- 4 1.0 0.0 1 4
r 0.22928 1 0 ack 40 ------- 4 1.0 0.0 1 4
+ 0.22928 0 1 tcp 1040 ------- 4 0.0 1.0 3 5
- 0.22928 0 1 tcp 1040 ------- 4 0.0 1.0 3 5
+ 0.22928 0 1 tcp 1040 ------- 4 0.0 1.0 4 6
r 0.23228 0 1 tcp 1040 ------- 4 0.0 1.0 2 3
+ 0.23228 1 0 ack 40 ------- 4 1.0 0.0 2 7
- 0.23228 1 0 ack 40 ------- 4 1.0 0.0 2 7
- 0.2376 0 1 tcp 1040 ------- 4 0.0 1.0 4 6
r 0.2376 1 0 ack 40 ------- 4 1.0 0.0 2 7
+ 0.2376 0 1 tcp 1040 ------- 4 0.0 1.0 5 8
+ 0.2376 0 1 tcp 1040 ------- 4 0.0 1.0 6 9
r 0.2426 0 1 tcp 1040 ------- 4 0.0 1.0 3 5
+ 0.2426 1 0 ack 40 ------- 4 1.0 0.0 3 10
- 0.2426 1 0 ack 40 ------- 4 1.0 0.0 3 10
- 0.24592 0 1 tcp 1040 ------- 4 0.0 1.0 5 8
r 0.24792 1 0 ack 40 ------- 4 1.0 0.0 3 10
+ 0.24792 0 1 tcp 1040 ------- 4 0.0 1.0 7 11
+ 0.24792 0 1 tcp 1040 ------- 4 0.0 1.0 8 12
r 0.25092 0 1 tcp 1040 ------- 4 0.0 1.0 4 6
+ 0.25092 1 0 ack 40 ------- 4 1.0 0.0 4 13
- 0.25092 1 0 ack 40 ------- 4 1.0 0.0 4 13
- 0.25424 0 1 tcp 1040 ------- 4 0.0 1.0 6 9
r 0.25624 1 0 ack 40 ------- 4 1.0 0.0 4 13
+ 0.25624 0 1 tcp 1040 ------- 4 0.0 1.0 9 14
+ 0.25624 0 1 tcp 1040 ------- 4 0.0 1.0 10 15
r 0.25924 0 1 tcp 1040 ------- 4 0.0 1.0 5 8
+ 0.25924 1 0 ack 40 ------- 4 1.0 0.0 5 16
- 0.25924 1 0 ack 40 ------- 4 1.0 0.0 5 16
- 0.26256 0 1 tcp 1040 ------- 4 0.0 1.0 7 11
r 0.26456 1 0 ack 40 ------- 4 1.0 0.0 5 16
+ 0.26456 0 1 tcp 1040 ------- 4 0.0 1.0 11 17
+ 0.26456 0 1 tcp 1040 ------- 4 0.0 1.0 12 18
r 0.26756 0 1 tcp 1040 ------- 4 0.0 1.0 6 9
+ 0.26756 1 0 ack 40 ------- 4 1.0 0.0 6 19
- 0.26756 1 0 ack 40 ------- 4 1.0 0.0 6 19
- 0.27088 0 1 tcp 1040 ------- 4 0.0 1.0 8 12
r 0.27288 1 0 ack 40 ------- 4 1.0 0.0 6 19
+ 0.27288 0 1 tcp 1040 ------- 4 0.0 1.0 13 20
+ 0.27288 0 1 tcp 1040 ------- 4 0.0 1.0 14 21
r 0.27588 0 1 tcp 1040 ------- 4 0.0 1.0 7 11
+ 0.27588 1 0 ack 40 ------- 4 1.0 0.0 7 22
- 0.27588 1 0 ack 40 ------- 4 1.0 0.0 7 22
- 0.2792 0 1 tcp 1040 ------- 4 0.0 1.0 9 14
r 0.2812 1 0 ack 40 ------- 4 1.0 0.0 7 22
+ 0.2812 0 1 tcp 1040 ------- 4 0.0 1.0 15 23
+ 0.2812 0 1 tcp 1040 ------- 4 0.0 1.0 16 24
r 0.2842 0 1 tcp 1040 ------- 4 0.0 1.0 8 12
+ 0.2842 1 0 ack 40 ------- 4 1.0 0.0 8 25
- 0.2842 1 0 ack 40 ------- 4 1.0 0.0 8 25
- 0.28752 0 1 tcp 1040 ------- 4 0.0 1.0 10 15
r 0.28952 1 0 ack 40 ------- 4 1.0 0.0 8 25
+ 0.28952 0 1 tcp 1040 ------- 4 0.0 1.0 17 26
+ 0.28952 0 1 tcp 1040 ------- 4 0.0 1.0 18 27
r 0.29252 0 1 tcp 1040 ------- 4 0.0 1.0 9 14
+ 0.29252 1 0 ack 40 ------- 4 1.0 0.0 9 28
- 0.29252 1 0 ack 40 ------- 4 1.0 0.0 9 28
- 0.29584 0 1 tcp 1040 ------- 4 0.0 1.0 11 17
r 0.29784 1 0 ack 40 ------- 4 1.0 0.0 9 28
+ 0.29784 0 1 tcp 1040 ------- 4 0.0 1.0 19 29
+ 0.29784 0 1 tcp 1040 ------- 4 0.0 1.0 20 30
r 0.30084 0 1 tcp 1040 ------- 4 0.0 1.0 10 15
+ 0.30084 1 0 ack 40 ------- 4 1.0 0.0 10 31
- 0.30084 1 0 ack 40 ------- 4 1.0 0.0 10 31
- 0.30416 0 1 tcp 1040 ------- 4 0.0 1.0 12 18
r 0.30616 1 0 ack 40 ------- 4 1.0 0.0 10 31
+ 0.30616 0 1 tcp 1040 ------- 4 0.0 1.0 21 32
+ 0.30616 0 1 tcp 1040 ------- 4 0.0 1.0 22 33
r 0.30916 0 1 tcp 1040 ------- 4 0.0 1.0 11 17
+ 0.30916 1 0 ack 40 ------- 4 1.0 0.0 11 34
- 0.30916 1 0 ack 40 ------- 4 1.0 0.0 11 34
- 0.31248 0 1 tcp 1040 ------- 4 0.0 1.0 13 20
r 0.31448 1 0 ack 40 ------- 4 1.0 0.0 11 34
+ 0.31448 0 1 tcp 1040 ------- 4 0.0 1.0 23 35
+ 0.31448 0 1 tcp 1040 ------- 4 0.0 1.0 24 36
r 0.31748 0 1 tcp 1040 ------- 4 0.0 1.0 12 18
+ 0.31748 1 0 ack 40 ------- 4 1.0 0.0 12 37
- 0.31748 1 0 ack 40 ------- 4 1.0 0.0 12 37
- 0.3208 0 1 tcp 1040 ------- 4 0.0 1.0 14 21
r 0.3228 1 0 ack 40 ------- 4 1.0 0.0 12 37
+ 0.3228 0 1 tcp 1040 ------- 4 0.0 1.0 25 38
+ 0.3228 0 1 tcp 1040 ------- 4 0.0 1.0 26 39
r 0.3258 0 1 tcp 1040 ------- 4 0.0 1.0 13 20
+ 0.3258 1 0 ack 40 ------- 4 1.0 0.0 13 40
- 0.3258 1 0 ack 40 ------- 4 1.0 0.0 13 40
- 0.32912 0 1 tcp 1040 ------- 4 0.0 1.0 15 23
r 0.33112 1 0 ack 40 ------- 4 1.0 0.0 13 40
+ 0.33112 0 1 tcp 1040 ------- 4 0.0 1.0 27 41
+ 0.33112 0 1 tcp 1040 ------- 4 0.0 1.0 28 42
r 0.33412 0 1 tcp 1040 ------- 4 0.0 1.0 14 21
+ 0.33412 1 0 ack 40 ------- 4 1.0 0.0 14 43
- 0.33412 1 0 ack 40 ------- 4 1.0 0.0 14 43
- 0.33744 0 1 tcp 1040 ------- 4 0.0 1.0 16 24
r 0.33944 1 0 ack 40 ------- 4 1.0 0.0 14 43
+ 0.33944 0 1 tcp 1040 ------- 4 0.0 1.0 29 44
+ 0.33944 0 1 tcp 1040 ------- 4 0.0 1.0 30 45
r 0.34244 0 1 tcp 1040 ------- 4 0.0 1.0 15 23
+ 0.34244 1 0 ack 40 ------- 4 1.0 0.0 15 46
- 0.34244 1 0 ack 40 ------- 4 1.0 0.0 15 46
- 0.34576 0 1 tcp 1040 ------- 4 0.0 1.0 17 26
r 0.34776 1 0 ack 40 ------- 4 1.0 0.0 15 46
+ 0.34776 0 1 tcp 1040 ------- 4 0.0 1.0 31 47
+ 0.34776 0 1 tcp 1040 ------- 4 0.0 1.0 32 48
r 0.35076 0 1 tcp 1040 ------- 4 0.0 1.0 16 24
+ 0.35076 1 0 ack 40 ------- 4 1.0 0.0 16 49
- 0.35076 1 0 ack 40 ------- 4 1.0 0.0 16 49
- 0.35408 0 1 tcp 1040 ------- 4 0.0 1.0 18 27
r 0.35608 1 0 ack 40 ------- 4 1.0 0.0 16 49
+ 0.35608 0 1 tcp 1040 ------- 4 0.0 1.0 33 50
+ 0.35608 0 1 tcp 1040 ------- 4 0.0 1.0 34 51
r 0.35908 0 1 tcp 1040 ------- 4 0.0 1.0 17 26
+ 0.35908 1 0 ack 40 ------- 4 1.0 0.0 17 52
- 0.35908 1 0 ack 40 ------- 4 1.0 0.0 17 52
- 0.3624 0 1 tcp 1040 ------- 4 0.0 1.0 19 29
r 0.3644 1 0 ack 40 ------- 4 1.0 0.0 17 52
+ 0.3644 0 1 tcp 1040 ------- 4 0.0 1.0 35 53
+ 0.3644 0 1 tcp 1040 ------- 4 0.0 1.0 36 54
r 0.3674 0 1 tcp 1040 ------- 4 0.0 1.0 18 27
+ 0.3674 1 0 ack 40 ------- 4 1.0 0.0 18 55
- 0.3674 1 0 ack 40 ------- 4 1.0 0.0 18 55
- 0.37072 0 1 tcp 1040 ------- 4 0.0 1.0 20 30
r 0.37272 1 0 ack 40 ------- 4 1.0 0.0 18 55
+ 0.37272 0 1 tcp 1040 ------- 4 0.0 1.0 37 56
+ 0.37272 0 1 tcp 1040 ------- 4 0.0 1.0 38 57
r 0.37572 0 1 tcp 1040 ------- 4 0.0 1.0 19 29
+ 0.37572 1 0 ack 40 ------- 4 1.0 0.0 19 58
- 0.37572 1 0 ack 40 ------- 4 1.0 0.0 19 58
- 0.37904 0 1 tcp 1040 ------- 4 0.0 1.0 21 32
r 0.38104 1 0 ack 40 ------- 4 1.0 0.0 19 58
+ 0.38104 0 1 tcp 1040 ------- 4 0.0 1.0 39 59
r 0.38404 0 1 tcp 1040 ------- 4 0.0 1.0 20 30
+ 0.38404 1 0 ack 40 ------- 4 1.0 0.0 20 60
- 0.38404 1 0 ack 40 ------- 4 1.0 0.0 20 60
- 0.38736 0 1 tcp 1040 ------- 4 0.0 1.0 22 33
r 0.38936 1 0 ack 40 ------- 4 1.0 0.0 20 60
+ 0.38936 0 1 tcp 1040 ------- 4 0.0 1.0 40 61
r 0.39236 0 1 tcp 1040 ------- 4 0.0 1.0 21 32
+ 0.39236 1 0 ack 40 ------- 4 1.0 0.0 21 62
- 0.39236 1 0 ack 40 ------- 4 1.0 0.0 21 62
- 0.39568 0 1 tcp 1040 ------- 4 0.0 1.0 23 35
r 0.39768 1 0 ack 40 ------- 4 1.0 0.0 21 62
+ 0.39768 0 1 tcp 1040 ------- 4 0.0 1.0 41 63
r 0.40068 0 1 tcp 1040 ------- 4 0.0 1.0 22 33
+ 0.40068 1 0 ack 40 ------- 4 1.0 0.0 22 64
- 0.40068 1 0 ack 40 ------- 4 1.0 0.0 22 64
- 0.404 0 1 tcp 1040 ------- 4 0.0 1.0 24 36
r 0.406 1 0 ack 40 ------- 4 1.0 0.0 22 64
+ 0.406 0 1 tcp 1040 ------- 4 0.0 1.0 42 65
r 0.409 0 1 tcp 1040 ------- 4 0.0 1.0 23 35
+ 0.409 1 0 ack 40 ------- 4 1.0 0.0 23 66
- 0.409 1 0 ack 40 ------- 4 1.0 0.0 23 66
- 0.41232 0 1 tcp 1040 ------- 4 0.0 1.0 25 38
r 0.41432 1 0 ack 40 ------- 4 1.0 0.0 23 66
+ 0.41432 0 1 tcp 1040 ------- 4 0.0 1.0 43 67
r 0.41732 0 1 tcp 1040 ------- 4 0.0 1.0 24 36
+ 0.41732 1 0 ack 40 ------- 4 1.0 0.0 24 68
- 0.41732 1 0 ack 40 ------- 4 1.0 0.0 24 68
- 0.42064 0 1 tcp 1040 ------- 4 0.0 1.0 26 39
r 0.42264 1 0 ack 40 ------- 4 1.0 0.0 24 68
+ 0.42264 0 1 tcp 1040 ------- 4 0.0 1.0 44 69
r 0.42564 0 1 tcp 1040 ------- 4 0.0 1.0 25 38
+ 0.42564 1 0 ack 40 ------- 4 1.0 0.0 25 70
- 0.42564 1 0 ack 40 ------- 4 1.0 0.0 25 70
- 0.42896 0 1 tcp 1040 ------- 4 0.0 1.0 27 41
r 0.43096 1 0 ack 40 ------- 4 1.0 0.0 25 70
+ 0.43096 0 1 tcp 1040 ------- 4 0.0 1.0 45 71
r 0.43396 0 1 tcp 1040 ------- 4 0.0 1.0 26 39
+ 0.43396 1 0 ack 40 ------- 4 1.0 0.0 26 72
- 0.43396 1 0 ack 40 ------- 4 1.0 0.0 26 72
- 0.43728 0 1 tcp 1040 ------- 4 0.0 1.0 28 42
r 0.43928 1 0 ack 40 ------- 4 1.0 0.0 26 72
+ 0.43928 0 1 tcp 1040 ------- 4 0.0 1.0 46 73
r 0.44228 0 1 tcp 1040 ------- 4 0.0 1.0 27 41
+ 0.44228 1 0 ack 40 ------- 4 1.0 0.0 27 74
- 0.44228 1 0 ack 40 ------- 4 1.0 0.0 27 74
- 0.4456 0 1 tcp 1040 ------- 4 0.0 1.0 29 44
r 0.4476 1 0 ack 40 ------- 4 1.0 0.0 27 74
+ 0.4476 0 1 tcp 1040 ------- 4 0.0 1.0 47 75
r 0.4506 0 1 tcp 1040 ------- 4 0.0 1.0 28 42
+ 0.4506 1 0 ack 40 ------- 4 1.0 0.0 28 76
- 0.4506 1 0 ack 40 ------- 4 1.0 0.0 28 76
- 0.45392 0 1 tcp 1040 ------- 4 0.0 1.0 30 45
r 0.45592 1 0 ack 40 ------- 4 1.0 0.0 28 76
+ 0.45592 0 1 tcp 1040 ------- 4 0.0 1.0 48 77
r 0.45892 0 1 tcp 1040 ------- 4 0.0 1.0 29 44
+ 0.45892 1 0 ack 40 ------- 4 1.0 0.0 29 78
- 0.45892 1 0 ack 40 ------- 4 1.0 0.0 29 78
- 0.46224 0 1 tcp 1040 ------- 4 0.0 1.0 31 47
r 0.46424 1 0 ack 40 ------- 4 1.0 0.0 29 78
+ 0.46424 0 1 tcp 1040 ------- 4 0.0 1.0 49 79
r 0.46724 0 1 tcp 1040 ------- 4 0.0 1.0 30 45
+ 0.46724 1 0 ack 40 ------- 4 1.0 0.0 30 80
- 0.46724 1 0 ack 40 ------- 4 1.0 0.0 30 80
- 0.47056 0 1 tcp 1040 ------- 4 0.0 1.0 32 48
r 0.47256 1 0 ack 40 ------- 4 1.0 0.0 30 80
+ 0.47256 0 1 tcp 1040 ------- 4 0.0 1.0 50 81
r 0.47556 0 1 tcp 1040 ------- 4 0.0 1.0 31 47
+ 0.47556 1 0 ack 40 ------- 4 1.0 0.0 31 82
- 0.47556 1 0 ack 40 ------- 4 1.0 0.0 31 82
- 0.47888 0 1 tcp 1040 ------- 4 0.0 1.0 33 50
r 0.48088 1 0 ack 40 ------- 4 1.0 0.0 31 82
+ 0.48088 0 1 tcp 1040 ------- 4 0.0 1.0 51 83
r 0.48388 0 1 tcp 1040 ------- 4 0.0 1.0 32 48
+ 0.48388 1 0 ack 40 ------- 4 1.0 0.0 32 84
- 0.48388 1 0 ack 40 ------- 4 1.0 0.0 32 84
- 0.4872 0 1 tcp 1040 ------- 4 0.0 1.0 34 51
r 0.4892 1 0 ack 40 ------- 4 1.0 0.0 32 84
+ 0.4892 0 1 tcp 1040 ------- 4 0.0 1.0 52 85
r 0.4922 0 1 tcp 1040 ------- 4 0.0 1.0 33 50
+ 0.4922 1 0 ack 40 ------- 4 1.0 0.0 33 86
- 0.4922 1 0 ack 40 ------- 4 1.0 0.0 33 86
- 0.49552 0 1 tcp 1040 ------- 4 0.0 1.0 35 53
r 0.49752 1 0 ack 40 ------- 4 1.0 0.0 33 86
+ 0.49752 0 1 tcp 1040 ------- 4 0.0 1.0 53 87
r 0.50052 0 1 tcp 1040 ------- 4 0.0 1.0 34 51
+ 0.50052 1 0 ack 40 ------- 4 1.0 0.0 34 88
- 0.50052 1 0 ack 40 ------- 4 1.0 0.0 34 88
- 0.50384 0 1 tcp 1040 ------- 4 0.0 1.0 36 54
r 0.50584 1 0 ack 40 ------- 4 1.0 0.0 34 88
+ 0.50584 0 1 tcp 1040 ------- 4 0.0 1.0 54 89
r 0.50884 0 1 tcp 1040 ------- 4 0.0 1.0 35 53
+ 0.50884 1 0 ack 40 ------- 4 1.0 0.0 35 90
- 0.50884 1 0 ack 40 ------- 4 1.0 0.0 35 90
- 0.51216 0 1 tcp 1040 ------- 4 0.0 1.0 37 56
r 0.51416 1 0 ack 40 ------- 4 1.0 0.0 35 90
+ 0.51416 0 1 tcp 1040 ------- 4 0.0 1.0 55 91
r 0.51716 0 1 tcp 1040 ------- 4 0.0 1.0 36 54
+ 0.51716 1 0 ack 40 ------- 4 1.0 0.0 36 92
- 0.51716 1 0 ack 40 ------- 4 1.0 0.0 36 92
- 0.52048 0 1 tcp 1040 ------- 4 0.0 1.0 38 57
r 0.52248 1 0 ack 40 ------- 4 1.0 0.0 36 92
+ 0.52248 0 1 tcp 1040 ------- 4 0.0 1.0 56 93
r 0.52548 0 1 tcp 1040 ------- 4 0.0 1.0 37 56
+ 0.52548 1 0 ack 40 ------- 4 1.0 0.0 37 94
- 0.52548 1 0 ack 40 ------- 4 1.0 0.0 37 94
- 0.5288 0 1 tcp 1040 ------- 4 0.0 1.0 39 59
r 0.5308 1 0 ack 40 ------- 4 1.0 0.0 37 94
+ 0.5308 0 1 tcp 1040 ------- 4 0.0 1.0 57 95
r 0.5338 0 1 tcp 1040 ------- 4 0.0 1.0 38 57
+ 0.5338 1 0 ack 40 ------- 4 1.0 0.0 38 96
- 0.5338 1 0 ack 40 ------- 4 1.0 0.0 38 96
- 0.53712 0 1 tcp 1040 ------- 4 0.0 1.0 40 61
r 0.53912 1 0 ack 40 ------- 4 1.0 0.0 38 96
+ 0.53912 0 1 tcp 1040 ------- 4 0.0 1.0 58 97
r 0.54212 0 1 tcp 1040 ------- 4 0.0 1.0 39 59
+ 0.54212 1 0 ack 40 ------- 4 1.0 0.0 39 98
- 0.54212 1 0 ack 40 ------- 4 1.0 0.0 39 98
- 0.54544 0 1 tcp 1040 ------- 4 0.0 1.0 41 63
r 0.54744 1 0 ack 40 ------- 4 1.0 0.0 39 98
+ 0.54744 0 1 tcp 1040 ------- 4 0.0 1.0 59 99
r 0.55044 0 1 tcp 1040 ------- 4 0.0 1.0 40 61
+ 0.55044 1 0 ack 40 ------- 4 1.0 0.0 40 100
- 0.55044 1 0 ack 40 ------- 4 1.0 0.0 40 100
- 0.55376 0 1 tcp 1040 ------- 4 0.0 1.0 42 65
r 0.55576 1 0 ack 40 ------- 4 1.0 0.0 40 100
+ 0.55576 0 1 tcp 1040 ------- 4 0.0 1.0 60 101
r 0.55876 0 1 tcp 1040 ------- 4 0.0 1.0 41 63
+ 0.55876 1 0 ack 40 ------- 4 1.0 0.0 41 102
- 0.55876 1 0 ack 40 ------- 4 1.0 0.0 41 102
- 0.56208 0 1 tcp 1040 ------- 4 0.0 1.0 43 67
r 0.56408 1 0 ack 40 ------- 4 1.0 0.0 41 102
+ 0.56408 0 1 tcp 1040 ------- 4 0.0 1.0 61 103
r 0.56708 0 1 tcp 1040 ------- 4 0.0 1.0 42 65
+ 0.56708 1 0 ack 40 ------- 4 1.0 0.0 42 104
- 0.56708 1 0 ack 40 ------- 4 1.0 0.0 42 104
- 0.5704 0 1 tcp 1040 ------- 4 0.0 1.0 44 69
r 0.5724 1 0 ack 40 ------- 4 1.0 0.0 42 104
+ 0.5724 0 1 tcp 1040 ------- 4 0.0 1.0 62 105
r 0.5754 0 1 tcp 1040 ------- 4 0.0 1.0 43 67
+ 0.5754 1 0 ack 40 ------- 4 1.0 0.0 43 106
- 0.5754 1 0 ack 40 ------- 4 1.0 0.0 43 106
- 0.57872 0 1 tcp 1040 ------- 4 0.0 1.0 45 71
r 0.58072 1 0 ack 40 ------- 4 1.0 0.0 43 106
+ 0.58072 0 1 tcp 1040 ------- 4 0.0 1.0 63 107
r 0.58372 0 1 tcp 1040 ------- 4 0.0 1.0 44 69
+ 0.58372 1 0 ack 40 ------- 4 1.0 0.0 44 108
- 0.58372 1 0 ack 40 ------- 4 1.0 0.0 44 108
- 0.58704 0 1 tcp 1040 ------- 4 0.0 1.0 46 73
r 0.58904 1 0 ack 40 ------- 4 1.0 0.0 44 108
+ 0.58904 0 1 tcp 1040 ------- 4 0.0 1.0 64 109
r 0.59204 0 1 tcp 1040 ------- 4 0.0 1.0 45 71
+ 0.59204 1 0 ack 40 ------- 4 1.0 0.0 45 110
- 0.59204 1 0 ack 40 ------- 4 1.0 0.0 45 110
- 0.59536 0 1 tcp 1040 ------- 4 0.0 1.0 47 75
r 0.59736 1 0 ack 40 ------- 4 1.0 0.0 45 110
+ 0.59736 0 1 tcp 1040 ------- 4 0.0 1.0 65 111
r 0.60036 0 1 tcp 1040 ------- 4 0.0 1.0 46 73
+ 0.60036 1 0 ack 40 ------- 4 1.0 0.0 46 112
- 0.60036 1 0 ack 40 ------- 4 1.0 0.0 46 112
- 0.60368 0 1 tcp 1040 ------- 4 0.0 1.0 48 77
r 0.60568 1 0 ack 40 ------- 4 1.0 0.0 46 112
+ 0.60568 0 1 tcp 1040 ------- 4 0.0 1.0 66 113
r 0.60868 0 1 tcp 1040 ------- 4 0.0 1.0 47 75
+ 0.60868 1 0 ack 40 ------- 4 1.0 0.0 47 114
- 0.60868 1 0 ack 40 ------- 4 1.0 0.0 47 114
- 0.612 0 1 tcp 1040 ------- 4 0.0 1.0 49 79
r 0.614 1 0 ack 40 ------- 4 1.0 0.0 47 114
+ 0.614 0 1 tcp 1040 ------- 4 0.0 1.0 67 115
r 0.617 0 1 tcp 1040 ------- 4 0.0 1.0 48 77
+ 0.617 1 0 ack 40 ------- 4 1.0 0.0 48 116
- 0.617 1 0 ack 40 ------- 4 1.0 0.0 48 116
- 0.62032 0 1 tcp 1040 ------- 4 0.0 1.0 50 81
r 0.62232 1 0 ack 40 ------- 4 1.0 0.0 48 116
+ 0.62232 0 1 tcp 1040 ------- 4 0.0 1.0 68 117
r 0.62532 0 1 tcp 1040 ------- 4 0.0 1.0 49 79
+ 0.62532 1 0 ack 40 ------- 4 1.0 0.0 49 118
- 0.62532 1 0 ack 40 ------- 4 1.0 0.0 49 118
- 0.62864 0 1 tcp 1040 ------- 4 0.0 1.0 51 83
r 0.63064 1 0 ack 40 ------- 4 1.0 0.0 49 118
+ 0.63064 0 1 tcp 1040 ------- 4 0.0 1.0 69 119
r 0.63364 0 1 tcp 1040 ------- 4 0.0 1.0 50 81
+ 0.63364 1 0 ack 40 ------- 4 1.0 0.0 50 120
- 0.63364 1 0 ack 40 ------- 4 1.0 0.0 50 120
- 0.63696 0 1 tcp 1040 ------- 4 0.0 1.0 52 85
r 0.63896 1 0 ack 40 ------- 4 1.0 0.0 50 120
+ 0.63896 0 1 tcp 1040 ------- 4 0.0 1.0 70 121
r 0.64196 0 1 tcp 1040 ------- 4 0.0 1.0 51 83
+ 0.64196 1 0 ack 40 ------- 4 1.0 0.0 51 122
- 0.64196 1 0 ack 40 ------- 4 1.0 0.0 51 122
- 0.64528 0 1 tcp 1040 ------- 4 0.0 1.0 53 87
r 0.64728 1 0 ack 40 ------- 4 1.0 0.0 51 122
+ 0.64728 0 1 tcp 1040 ------- 4 0.0 1.0 71 123
r 0.65028 0 1 tcp 1040 ------- 4 0.0 1.0 52 85
+ 0.65028 1 0 ack 40 ------- 4 1.0 0.0 52 124
- 0.65028 1 0 ack 40 ------- 4 1.0 0.0 52 124
- 0.6536 0 1 tcp 1040 ------- 4 0.0 1.0 54 89
r 0.6556 1 0 ack 40 ------- 4 1.0 0.0 52 124
+ 0.6556 0 1 tcp 1040 ------- 4 0.0 1.0 72 125
r 0.6586 0 1 tcp 1040 ------- 4 0.0 1.0 53 87
+ 0.6586 1 0 ack 40 ------- 4 1.0 0.0 53 126
- 0.6586 1 0 ack 40 ------- 4 1.0 0.0 53 126
- 0.66192 0 1 tcp 1040 ------- 4 0.0 1.0 55 91
r 0.66392 1 0 ack 40 ------- 4 1.0 0.0 53 126
+ 0.66392 0 1 tcp 1040 ------- 4 0.0 1.0 73 127
r 0.66692 0 1 tcp 1040 ------- 4 0.0 1.0 54 89
+ 0.66692 1 0 ack 40 ------- 4 1.0 0.0 54 128
- 0.66692 1 0 ack 40 ------- 4 1.0 0.0 54 128
- 0.67024 0 1 tcp 1040 ------- 4 0.0 1.0 56 93
r 0.67224 1 0 ack 40 ------- 4 1.0 0.0 54 128
+ 0.67224 0 1 tcp 1040 ------- 4 0.0 1.0 74 129
r 0.67524 0 1 tcp 1040 ------- 4 0.0 1.0 55 91
+ 0.67524 1 0 ack 40 ------- 4 1.0 0.0 55 130
- 0.67524 1 0 ack 40 ------- 4 1.0 0.0 55 130
- 0.67856 0 1 tcp 1040 ------- 4 0.0 1.0 57 95
r 0.68056 1 0 ack 40 ------- 4 1.0 0.0 55 130
+ 0.68056 0 1 tcp 1040 ------- 4 0.0 1.0 75 131
r 0.68356 0 1 tcp 1040 ------- 4 0.0 1.0 56 93
+ 0.68356 1 0 ack 40 ------- 4 1.0 0.0 56 132
- 0.68356 1 0 ack 40 ------- 4 1.0 0.0 56 132
- 0.68688 0 1 tcp 1040 ------- 4 0.0 1.0 58 97
r 0.68888 1 0 ack 40 ------- 4 1.0 0.0 56 132
+ 0.68888 0 1 tcp 1040 ------- 4 0.0 1.0 76 133
r 0.69188 0 1 tcp 1040 ------- 4 0.0 1.0 57 95
+ 0.69188 1 0 ack 40 ------- 4 1.0 0.0 57 134
- 0.69188 1 0 ack 40 ------- 4 1.0 0.0 57 134
- 0.6952 0 1 tcp 1040 ------- 4 0.0 1.0 59 99
r 0.6972 1 0 ack 40 ------- 4 1.0 0.0 57 134
+ 0.6972 0 1 tcp 1040 ------- 4 0.0 1.0 77 135
r 0.7002 0 1 tcp 1040 ------- 4 0.0 1.0 58 97
+ 0.7002 1 0 ack 40 ------- 4 1.0 0.0 58 136
- 0.7002 1 0 ack 40 ------- 4 1.0 0.0 58 136
- 0.70352 0 1 tcp 1040 ------- 4 0.0 1.0 60 101
r 0.70552 1 0 ack 40 ------- 4 1.0 0.0 58 136
+ 0.70552 0 1 tcp 1040 ------- 4 0.0 1.0 78 137
r 0.70852 0 1 tcp 1040 ------- 4 0.0 1.0 59 99
+ 0.70852 1 0 ack 40 ------- 4 1.0 0.0 59 138
- 0.70852 1 0 ack 40 ------- 4 1.0 0.0 59 138
- 0.71184 0 1 tcp 1040 ------- 4 0.0 1.0 61 103
r 0.71384 1 0 ack 40 ------- 4 1.0 0.0 59 138
+ 0.71384 0 1 tcp 1040 ------- 4 0.0 1.0 79 139
r 0.71684 0 1 tcp 1040 ------- 4 0.0 1.0 60 101
+ 0.71684 1 0 ack 40 ------- 4 1.0 0.0 60 140
- 0.71684 1 0 ack 40 ------- 4 1.0 0.0 60 140
- 0.72016 0 1 tcp 1040 ------- 4 0.0 1.0 62 105
r 0.72216 1 0 ack 40 ------- 4 1.0 0.0 60 140
+ 0.72216 0 1 tcp 1040 ------- 4 0.0 1.0 80 141
r 0.72516 0 1 tcp 1040 ------- 4 0.0 1.0 61 103
+ 0.72516 1 0 ack 40 ------- 4 1.0 0.0 61 142
- 0.72516 1 0 ack 40 ------- 4 1.0 0.0 61 142
- 0.72848 0 1 tcp 1040 ------- 4 0.0 1.0 63 107
r 0.73048 1 0 ack 40 ------- 4 1.0 0.0 61 142
+ 0.73048 0 1 tcp 1040 ------- 4 0.0 1.0 81 143
r 0.73348 0 1 tcp 1040 ------- 4 0.0 1.0 62 105
+ 0.73348 1 0 ack 40 ------- 4 1.0 0.0 62 144
- 0.73348 1 0 ack 40 ------- 4 1.0 0.0 62 144
- 0.7368 0 1 tcp 1040 ------- 4 0.0 1.0 64 109
r 0.7388 1 0 ack 40 ------- 4 1.0 0.0 62 144
+ 0.7388 0 1 tcp 1040 ------- 4 0.0 1.0 82 145
r 0.7418 0 1 tcp 1040 ------- 4 0.0 1.0 63 107
+ 0.7418 1 0 ack 40 ------- 4 1.0 0.0 63 146
- 0.7418 1 0 ack 40 ------- 4 1.0 0.0 63 146
- 0.74512 0 1 tcp 1040 ------- 4 0.0 1.0 65 111
r 0.74712 1 0 ack 40 ------- 4 1.0 0.0 63 146
+ 0.74712 0 1 tcp 1040 ------- 4 0.0 1.0 83 147
r 0.75012 0 1 tcp 1040 ------- 4 0.0 1.0 64 109
+ 0.75012 1 0 ack 40 ------- 4 1.0 0.0 64 148
- 0.75012 1 0 ack 40 ------- 4 1.0 0.0 64 148
- 0.75344 0 1 tcp 1040 ------- 4 0.0 1.0 66 113
r 0.75544 1 0 ack 40 ------- 4 1.0 0.0 64 148
+ 0.75544 0 1 tcp 1040 ------- 4 0.0 1.0 84 149
r 0.75844 0 1 tcp 1040 ------- 4 0.0 1.0 65 111
+ 0.75844 1 0 ack 40 ------- 4 1.0 0.0 65 150
- 0.75844 1 0 ack 40 ------- 4 1.0 0.0 65 150
- 0.76176 0 1 tcp 1040 ------- 4 0.0 1.0 67 115
r 0.76376 1 0 ack 40 ------- 4 1.0 0.0 65 150
+ 0.76376 0 1 tcp 1040 ------- 4 0.0 1.0 85 151
r 0.76676 0 1 tcp 1040 ------- 4 0.0 1.0 66 113
+ 0.76676 1 0 ack 40 ------- 4 1.0 0.0 66 152
- 0.76676 1 0 ack 40 ------- 4 1.0 0.0 66 152
- 0.77008 0 1 tcp 1040 ------- 4 0.0 1.0 68 117
r 0.77208 1 0 ack 40 ------- 4 1.0 0.0 66 152
+ 0.77208 0 1 tcp 1040 ------- 4 0.0 1.0 86 153
r 0.77508 0 1 tcp 1040 ------- 4 0.0 1.0 67 115
+ 0.77508 1 0 ack 40 ------- 4 1.0 0.0 67 154
- 0.77508 1 0 ack 40 ------- 4 1.0 0.0 67 154
- 0.7784 0 1 tcp 1040 ------- 4 0.0 1.0 69 119
r 0.7804 1 0 ack 40 ------- 4 1.0 0.0 67 154
+ 0.7804 0 1 tcp 1040 ------- 4 0.0 1.0 87 155
r 0.7834 0 1 tcp 1040 ------- 4 0.0 1.0 68 117
+ 0.7834 1 0 ack 40 ------- 4 1.0 0.0 68 156
- 0.7834 1 0 ack 40 ------- 4 1.0 0.0 68 156
- 0.78672 0 1 tcp 1040 ------- 4 0.0 1.0 70 121
r 0.78872 1 0 ack 40 ------- 4 1.0 0.0 68 156
+ 0.78872 0 1 tcp 1040 ------- 4 0.0 1.0 88 157
r 0.79172 0 1 tcp 1040 ------- 4 0.0 1.0 69 119
+ 0.79172 1 0 ack 40 ------- 4 1.0 0.0 69 158
- 0.79172 1 0 ack 40 ------- 4 1.0 0.0 69 158
- 0.79504 0 1 tcp 1040 ------- 4 0.0 1.0 71 123
r 0.79704 1 0 ack 40 ------- 4 1.0 0.0 69 158
+ 0.79704 0 1 tcp 1040 ------- 4 0.0 1.0 89 159
r 0.80004 0 1 tcp 1040 ------- 4 0.0 1.0 70 121
+ 0.80004 1 0 ack 40 ------- 4 1.0 0.0 70 160
- 0.80004 1 0 ack 40 ------- 4 1.0 0.0 70 160
- 0.80336 0 1 tcp 1040 ------- 4 0.0 1.0 72 125
r 0.80536 1 0 ack 40 ------- 4 1.0 0.0 70 160
+ 0.80536 0 1 tcp 1040 ------- 4 0.0 1.0 90 161
r 0.80836 0 1 tcp 1040 ------- 4 0.0 1.0 71 123
+ 0.80836 1 0 ack 40 ------- 4 1.0 0.0 71 162
- 0.80836 1 0 ack 40 ------- 4 1.0 0.0 71 162
- 0.81168 0 1 tcp 1040 ------- 4 0.0 1.0 73 127
r 0.81368 1 0 ack 40 ------- 4 1.0 0.0 71 162
+ 0.81368 0 1 tcp 1040 ------- 4 0.0 1.0 91 163
r 0.81668 0 1 tcp 1040 ------- 4 0.0 1.0 72 125
+ 0.81668 1 0 ack 40 ------- 4 1.0 0.0 72 164
- 0.81668 1 0 ack 40 ------- 4 1.0 0.0 72 164
- 0.82 0 1 tcp 1040 ------- 4 0.0 1.0 74 129
r 0.822 1 0 ack 40 ------- 4 1.0 0.0 72 164
+ 0.822 0 1 tcp 1040 ------- 4 0.0 1.0 92 165
r 0.825 0 1 tcp 1040 ------- 4 0.0 1.0 73 127
+ 0.825 1 0 ack 40 ------- 4 1.0 0.0 73 166
- 0.825 1 0 ack 40 ------- 4 1.0 0.0 73 166
- 0.82832 0 1 tcp 1040 ------- 4 0.0 1.0 75 131
r 0.83032 1 0 ack 40 ------- 4 1.0 0.0 73 166
+ 0.83032 0 1 tcp 1040 ------- 4 0.0 1.0 93 167
r 0.83332 0 1 tcp 1040 ------- 4 0.0 1.0 74 129
+ 0.83332 1 0 ack 40 ------- 4 1.0 0.0 74 168
- 0.83332 1 0 ack 40 ------- 4 1.0 0.0 74 168
- 0.83664 0 1 tcp 1040 ------- 4 0.0 1.0 76 133
r 0.83864 1 0 ack 40 ------- 4 1.0 0.0 74 168
+ 0.83864 0 1 tcp 1040 ------- 4 0.0 1.0 94 169
r 0.84164 0 1 tcp 1040 ------- 4 0.0 1.0 75 131
+ 0.84164 1 0 ack 40 ------- 4 1.0 0.0 75 170
- 0.84164 1 0 ack 40 ------- 4 1.0 0.0 75 170
- 0.84496 0 1 tcp 1040 ------- 4 0.0 1.0 77 135
r 0.84696 1 0 ack 40 ------- 4 1.0 0.0 75 170
+ 0.84696 0 1 tcp 1040 ------- 4 0.0 1.0 95 171
r 0.84996 0 1 tcp 1040 ------- 4 0.0 1.0 76 133
+ 0.84996 1 0 ack 40 ------- 4 1.0 0.0 76 172
- 0.84996 1 0 ack 40 ------- 4 1.0 0.0 76 172
- 0.85328 0 1 tcp 1040 ------- 4 0.0 1.0 78 137
r 0.85528 1 0 ack 40 ------- 4 1.0 0.0 76 172
+ 0.85528 0 1 tcp 1040 ------- 4 0.0 1.0 96 173
r 0.85828 0 1 tcp 1040 ------- 4 0.0 1.0 77 135
+ 0.85828 1 0 ack 40 ------- 4 1.0 0.0 77 174
- 0.85828 1 0 ack 40 ------- 4 1.0 0.0 77 174
- 0.8616 0 1 tcp 1040 ------- 4 0.0 1.0 79 139
r 0.8636 1 0 ack 40 ------- 4 1.0 0.0 77 174
+ 0.8636 0 1 tcp 1040 ------- 4 0.0 1.0 97 175
r 0.8666 0 1 tcp 1040 ------- 4 0.0 1.0 78 137
+ 0.8666 1 0 ack 40 ------- 4 1.0 0.0 78 176
- 0.8666 1 0 ack 40 ------- 4 1.0 0.0 78 176
- 0.86992 0 1 tcp 1040 ------- 4 0.0 1.0 80 141
r 0.87192 1 0 ack 40 ------- 4 1.0 0.0 78 176
+ 0.87192 0 1 tcp 1040 ------- 4 0.0 1.0 98 177
r 0.87492 0 1 tcp 1040 ------- 4 0.0 1.0 79 139
+ 0.87492 1 0 ack 40 ------- 4 1.0 0.0 79 178
- 0.87492 1 0 ack 40 ------- 4 1.0 0.0 79 178
- 0.87824 0 1 tcp 1040 ------- 4 0.0 1.0 81 143
r 0.88024 1 0 ack 40 ------- 4 1.0 0.0 79 178
+ 0.88024 0 1 tcp 1040 ------- 4 0.0 1.0 99 179
r 0.88324 0 1 tcp 1040 ------- 4 0.0 1.0 80 141
+ 0.88324 1 0 ack 40 ------- 4 1.0 0.0 80 180
- 0.88324 1 0 ack 40 ------- 4 1.0 0.0 80 180
- 0.88656 0 1 tcp 1040 ------- 4 0.0 1.0 82 145
r 0.88856 1 0 ack 40 ------- 4 1.0 0.0 80 180
+ 0.88856 0 1 tcp 1040 ------- 4 0.0 1.0 100 181
r 0.89156 0 1 tcp 1040 ------- 4 0.0 1.0 81 143
+ 0.89156 1 0 ack 40 ------- 4 1.0 0.0 81 182
- 0.89156 1 0 ack 40 ------- 4 1.0 0.0 81 182
- 0.89488 0 1 tcp 1040 ------- 4 0.0 1.0 83 147
r 0.89688 1 0 ack 40 ------- 4 1.0 0.0 81 182
+ 0.89688 0 1 tcp 1040 ------- 4 0.0 1.0 101 183
r 0.89988 0 1 tcp 1040 ------- 4 0.0 1.0 82 145
+ 0.89988 1 0 ack 40 ------- 4 1.0 0.0 82 184
- 0.89988 1 0 ack 40 ------- 4 1.0 0.0 82 184
- 0.9032 0 1 tcp 1040 ------- 4 0.0 1.0 84 149
r 0.9052 1 0 ack 40 ------- 4 1.0 0.0 82 184
+ 0.9052 0 1 tcp 1040 ------- 4 0.0 1.0 102 185
r 0.9082 0 1 tcp 1040 ------- 4 0.0 1.0 83 147
+ 0.9082 1 0 ack 40 ------- 4 1.0 0.0 83 186
- 0.9082 1 0 ack 40 ------- 4 1.0 0.0 83 186
- 0.91152 0 1 tcp 1040 ------- 4 0.0 1.0 85 151
r 0.91352 1 0 ack 40 ------- 4 1.0 0.0 83 186
+ 0.91352 0 1 tcp 1040 ------- 4 0.0 1.0 103 187
r 0.91652 0 1 tcp 1040 ------- 4 0.0 1.0 84 149
+ 0.91652 1 0 ack 40 ------- 4 1.0 0.0 84 188
- 0.91652 1 0 ack 40 ------- 4 1.0 0.0 84 188
- 0.91984 0 1 tcp 1040 ------- 4 0.0 1.0 86 153
r 0.92184 1 0 ack 40 ------- 4 1.0 0.0 84 188
+ 0.92184 0 1 tcp 1040 ------- 4 0.0 1.0 104 189
r 0.92484 0 1 tcp 1040 ------- 4 0.0 1.0 85 151
+ 0.92484 1 0 ack 40 ------- 4 1.0 0.0 85 190
- 0.92484 1 0 ack 40 ------- 4 1.0 0.0 85 190
- 0.92816 0 1 tcp 1040 ------- 4 0.0 1.0 87 155
r 0.93016 1 0 ack 40 ------- 4 1.0 0.0 85 190
+ 0.93016 0 1 tcp 1040 ------- 4 0.0 1.0 105 191
r 0.93316 0 1 tcp 1040 ------- 4 0.0 1.0 86 153
+ 0.93316 1 0 ack 40 ------- 4 1.0 0.0 86 192
- 0.93316 1 0 ack 40 ------- 4 1.0 0.0 86 192
- 0.93648 0 1 tcp 1040 ------- 4 0.0 1.0 88 157
r 0.93848 1 0 ack 40 ------- 4 1.0 0.0 86 192
+ 0.93848 0 1 tcp 1040 ------- 4 0.0 1.0 106 193
r 0.94148 0 1 tcp 1040 ------- 4 0.0 1.0 87 155
+ 0.94148 1 0 ack 40 ------- 4 1.0 0.0 87 194
- 0.94148 1 0 ack 40 ------- 4 1.0 0.0 87 194
- 0.9448 0 1 tcp 1040 ------- 4 0.0 1.0 89 159
r 0.9468 1 0 ack 40 ------- 4 1.0 0.0 87 194
+ 0.9468 0 1 tcp 1040 ------- 4 0.0 1.0 107 195
r 0.9498 0 1 tcp 1040 ------- 4 0.0 1.0 88 157
+ 0.9498 1 0 ack 40 ------- 4 1.0 0.0 88 196
- 0.9498 1 0 ack 40 ------- 4 1.0 0.0 88 196
- 0.95312 0 1 tcp 1040 ------- 4 0.0 1.0 90 161
r 0.95512 1 0 ack 40 ------- 4 1.0 0.0 88 196
+ 0.95512 0 1 tcp 1040 ------- 4 0.0 1.0 108 197
r 0.95812 0 1 tcp 1040 ------- 4 0.0 1.0 89 159
+ 0.95812 1 0 ack 40 ------- 4 1.0 0.0 89 198
- 0.95812 1 0 ack 40 ------- 4 1.0 0.0 89 198
- 0.96144 0 1 tcp 1040 ------- 4 0.0 1.0 91 163
r 0.96344 1 0 ack 40 ------- 4 1.0 0.0 89 198
+ 0.96344 0 1 tcp 1040 ------- 4 0.0 1.0 109 199
r 0.96644 0 1 tcp 1040 ------- 4 0.0 1.0 90 161
+ 0.96644 1 0 ack 40 ------- 4 1.0 0.0 90 200
- 0.96644 1 0 ack 40 ------- 4 1.0 0.0 90 200
- 0.96976 0 1 tcp 1040 ------- 4 0.0 1.0 92 165
r 0.97176 1 0 ack 40 ------- 4 1.0 0.0 90 200
+ 0.97176 0 1 tcp 1040 ------- 4 0.0 1.0 110 201
r 0.97476 0 1 tcp 1040 ------- 4 0.0 1.0 91 163
+ 0.97476 1 0 ack 40 ------- 4 1.0 0.0 91 202
- 0.97476 1 0 ack 40 ------- 4 1.0 0.0 91 202
- 0.97808 0 1 tcp 1040 ------- 4 0.0 1.0 93 167
r 0.98008 1 0 ack 40 ------- 4 1.0 0.0 91 202
+ 0.98008 0 1 tcp 1040 ------- 4 0.0 1.0 111 203
r 0.98308 0 1 tcp 1040 ------- 4 0.0 1.0 92 165
+ 0.98308 1 0 ack 40 ------- 4 1.0 0.0 92 204
- 0.98308 1 0 ack 40 ------- 4 1.0 0.0 92 204
- 0.9864 0 1 tcp 1040 ------- 4 0.0 1.0 94 169
r 0.9884 1 0 ack 40 ------- 4 1.0 0.0 92 204
+ 0.9884 0 1 tcp 1040 ------- 4 0.0 1.0 112 205
r 0.9914 0 1 tcp 1040 ------- 4 0.0 1.0 93 167
+ 0.9914 1 0 ack 40 ------- 4 1.0 0.0 93 206
- 0.9914 1 0 ack 40 ------- 4 1.0 0.0 93 206
- 0.99472 0 1 tcp 1040 ------- 4 0.0 1.0 95 171
r 0.99672 1 0 ack 40 ------- 4 1.0 0.0 93 206
+ 0.99672 0 1 tcp 1040 ------- 4 0.0 1.0 113 207
r 0.99972 0 1 tcp 1040 ------- 4 0.0 1.0 94 169
+ 0.99972 1 0 ack 40 ------- 4 1.0 0.0 94 208
- 0.99972 1 0 ack 40 ------- 4 1.0 0.0 94 208
- 1.00304 0 1 tcp 1040 ------- 4 0.0 1.0 96 173
r 1.00504 1 0 ack 40 ------- 4 1.0 0.0 94 208
+ 1.00504 0 1 tcp 1040 ------- 4 0.0 1.0 114 209
r 1.00804 0 1 tcp 1040 ------- 4 0.0 1.0 95 171
+ 1.00804 1 0 ack 40 ------- 4 1.0 0.0 95 210
- 1.00804 1 0 ack 40 ------- 4 1.0 0.0 95 210
- 1.01136 0 1 tcp 1040 ------- 4 0.0 1.0 97 175
r 1.01336 1 0 ack 40 ------- 4 1.0 0.0 95 210
+ 1.01336 0 1 tcp 1040 ------- 4 0.0 1.0 115 211
r 1.01636 0 1 tcp 1040 ------- 4 0.0 1.0 96 173
+ 1.01636 1 0 ack 40 ------- 4 1.0 0.0 96 212
- 1.01636 1 0 ack 40 ------- 4 1.0 0.0 96 212
- 1.01968 0 1 tcp 1040 ------- 4 0.0 1.0 98 177
r 1.02168 1 0 ack 40 ------- 4 1.0 0.0 96 212
+ 1.02168 0 1 tcp 1040 ------- 4 0.0 1.0 116 213
r 1.02468 0 1 tcp 1040 ------- 4 0.0 1.0 97 175
+ 1.02468 1 0 ack 40 ------- 4 1.0 0.0 97 214
- 1.02468 1 0 ack 40 ------- 4 1.0 0.0 97 214
- 1.028 0 1 tcp 1040 ------- 4 0.0 1.0 99 179
r 1.03 1 0 ack 40 ------- 4 1.0 0.0 97 214
+ 1.03 0 1 tcp 1040 ------- 4 0.0 1.0 117 215
r 1.033 0 1 tcp 1040 ------- 4 0.0 1.0 98 177
+ 1.033 1 0 ack 40 ------- 4 1.0 0.0 98 216
- 1.033 1 0 ack 40 ------- 4 1.0 0.0 98 216
- 1.03632 0 1 tcp 1040 ------- 4 0.0 1.0 100 181
r 1.03832 1 0 ack 40 ------- 4 1.0 0.0 98 216
+ 1.03832 0 1 tcp 1040 ------- 4 0.0 1.0 118 217
r 1.04132 0 1 tcp 1040 ------- 4 0.0 1.0 99 179
+ 1.04132 1 0 ack 40 ------- 4 1.0 0.0 99 218
- 1.04132 1 0 ack 40 ------- 4 1.0 0.0 99 218
- 1.04464 0 1 tcp 1040 ------- 4 0.0 1.0 101 183
r 1.04664 1 0 ack 40 ------- 4 1.0 0.0 99 218
+ 1.04664 0 1 tcp 1040 ------- 4 0.0 1.0 119 219
r 1.04964 0 1 tcp 1040 ------- 4 0.0 1.0 100 181
+ 1.04964 1 0 ack 40 ------- 4 1.0 0.0 100 220
- 1.04964 1 0 ack 40 ------- 4 1.0 0.0 100 220
- 1.05296 0 1 tcp 1040 ------- 4 0.0 1.0 102 185
r 1.05496 1 0 ack 40 ------- 4 1.0 0.0 100 220
+ 1.05496 0 1 tcp 1040 ------- 4 0.0 1.0 120 221
r 1.05796 0 1 tcp 1040 ------- 4 0.0 1.0 101 183
+ 1.05796 1 0 ack 40 ------- 4 1.0 0.0 101 222
- 1.05796 1 0 ack 40 ------- 4 1.0 0.0 101 222
- 1.06128 0 1 tcp 1040 ------- 4 0.0 1.0 103 187
r 1.06328 1 0 ack 40 ------- 4 1.0 0.0 101 222
+ 1.06328 0 1 tcp 1040 ------- 4 0.0 1.0 121 223
r 1.06628 0 1 tcp 1040 ------- 4 0.0 1.0 102 185
+ 1.06628 1 0 ack 40 ------- 4 1.0 0.0 102 224
- 1.06628 1 0 ack 40 ------- 4 1.0 0.0 102 224
- 1.0696 0 1 tcp 1040 ------- 4 0.0 1.0 104 189
r 1.0716 1 0 ack 40 ------- 4 1.0 0.0 102 224
+ 1.0716 0 1 tcp 1040 ------- 4 0.0 1.0 122 225
r 1.0746 0 1 tcp 1040 ------- 4 0.0 1.0 103 187
+ 1.0746 1 0 ack 40 ------- 4 1.0 0.0 103 226
- 1.0746 1 0 ack 40 ------- 4 1.0 0.0 103 226
- 1.07792 0 1 tcp 1040 ------- 4 0.0 1.0 105 191
r 1.07992 1 0 ack 40 ------- 4 1.0 0.0 103 226
+ 1.07992 0 1 tcp 1040 ------- 4 0.0 1.0 123 227
r 1.08292 0 1 tcp 1040 ------- 4 0.0 1.0 104 189
+ 1.08292 1 0 ack 40 ------- 4 1.0 0.0 104 228